Na_PW                                   
   1.00000000000000     
     3.556000    0.000000    0.000000
     0.000000    3.556000    0.000000
     0.000000    0.000000    3.556000
   C 
     8
Direct
  0.000000  0.000000  0.000000
  0.000000  0.500000  0.500000
  0.500000  0.500000  0.000000
  0.500000  0.000000  0.500000
  0.750000  0.250000  0.750000
  0.250000  0.250000  0.250000
  0.250000  0.750000  0.750000
  0.750000  0.750000  0.250000
 
   30   30   30
 0.22651296571E+02 0.38138029091E+02 0.66266486845E+02 0.78648831071E+02 0.70447459736E+02
 0.53996905869E+02 0.39262450382E+02 0.28669944902E+02 0.20926181116E+02 0.14942889607E+02
 0.10587449542E+02 0.77600535299E+01 0.60265634744E+01 0.49514222602E+01 0.43312601546E+01
 0.41254175470E+01 0.43312601546E+01 0.49514222602E+01 0.60265634744E+01 0.77600535299E+01
 0.10587449542E+02 0.14942889607E+02 0.20926181116E+02 0.28669944902E+02 0.39262450382E+02
 0.53996905869E+02 0.70447459736E+02 0.78648831071E+02 0.66266486845E+02 0.38138029091E+02
 0.38138029091E+02 0.50258572591E+02 0.71575727554E+02 0.79065920976E+02 0.69391284247E+02
 0.53234319546E+02 0.39070054228E+02 0.28793731674E+02 0.21147671376E+02 0.15188711005E+02
 0.10846591508E+02 0.80174509059E+01 0.62657298316E+01 0.51705025297E+01 0.45396366949E+01
 0.43312601546E+01 0.45396366949E+01 0.51705025297E+01 0.62657298316E+01 0.80174509059E+01
 0.10846591508E+02 0.15188711005E+02 0.21147671376E+02 0.28793731674E+02 0.39070054228E+02
 0.53234319546E+02 0.69391284247E+02 0.79065920976E+02 0.71575727554E+02 0.50258572591E+02
 0.66266486845E+02 0.71575727554E+02 0.79320594088E+02 0.77524778683E+02 0.65676654573E+02
 0.50864201913E+02 0.38376548149E+02 0.29011596232E+02 0.21695807781E+02 0.15873919755E+02
 0.11616475542E+02 0.88010655968E+01 0.69985626144E+01 0.58396034021E+01 0.51705025297E+01
 0.49514222602E+01 0.51705025297E+01 0.58396034021E+01 0.69985626144E+01 0.88010655968E+01
 0.11616475542E+02 0.15873919755E+02 0.21695807781E+02 0.29011596232E+02 0.38376548149E+02
 0.50864201913E+02 0.65676654573E+02 0.77524778683E+02 0.79320594088E+02 0.71575727554E+02
 0.78648831071E+02 0.79065920976E+02 0.77524778683E+02 0.70447078199E+02 0.58963919808E+02
 0.47009063421E+02 0.37024128266E+02 0.29014692364E+02 0.22322805829E+02 0.16875514263E+02
 0.12858898411E+02 0.10114997524E+02 0.82525324842E+01 0.69985626144E+01 0.62657298316E+01
 0.60265634744E+01 0.62657298316E+01 0.69985626144E+01 0.82525324842E+01 0.10114997524E+02
 0.12858898411E+02 0.16875514263E+02 0.22322805829E+02 0.29014692364E+02 0.37024128266E+02
 0.47009063421E+02 0.58963919808E+02 0.70447078199E+02 0.77524778683E+02 0.79065920976E+02
 0.70447459736E+02 0.69391284247E+02 0.65676654573E+02 0.58963919808E+02 0.50550323910E+02
 0.42301197189E+02 0.35037044321E+02 0.28587229219E+02 0.22832954102E+02 0.18075665241E+02
 0.14519002946E+02 0.11970474661E+02 0.10114997524E+02 0.88010655968E+01 0.80174509059E+01
 0.77600535299E+01 0.80174509059E+01 0.88010655968E+01 0.10114997524E+02 0.11970474661E+02
 0.14519002946E+02 0.18075665241E+02 0.22832954102E+02 0.28587229219E+02 0.35037044321E+02
 0.42301197189E+02 0.50550323910E+02 0.58963919808E+02 0.65676654573E+02 0.69391284247E+02
 0.53996905869E+02 0.53234319546E+02 0.50864201913E+02 0.47009063421E+02 0.42301197189E+02
 0.37403302074E+02 0.32524645600E+02 0.27686870068E+02 0.23188723454E+02 0.19465133573E+02
 0.16645180934E+02 0.14519002946E+02 0.12858898411E+02 0.11616475542E+02 0.10846591508E+02
 0.10587449542E+02 0.10846591508E+02 0.11616475542E+02 0.12858898411E+02 0.14519002946E+02
 0.16645180934E+02 0.19465133573E+02 0.23188723454E+02 0.27686870068E+02 0.32524645600E+02
 0.37403302074E+02 0.42301197189E+02 0.47009063421E+02 0.50864201913E+02 0.53234319546E+02
 0.39262450382E+02 0.39070054228E+02 0.38376548149E+02 0.37024128266E+02 0.35037044321E+02
 0.32524645600E+02 0.29579938648E+02 0.26439468178E+02 0.23536392205E+02 0.21211181285E+02
 0.19465133573E+02 0.18075665241E+02 0.16875514263E+02 0.15873919755E+02 0.15188711005E+02
 0.14942889607E+02 0.15188711005E+02 0.15873919755E+02 0.16875514263E+02 0.18075665241E+02
 0.19465133573E+02 0.21211181285E+02 0.23536392205E+02 0.26439468178E+02 0.29579938648E+02
 0.32524645600E+02 0.35037044321E+02 0.37024128266E+02 0.38376548149E+02 0.39070054228E+02
 0.28669944902E+02 0.28793731674E+02 0.29011596232E+02 0.29014692364E+02 0.28587229219E+02
 0.27686870068E+02 0.26439468178E+02 0.25143788211E+02 0.24134860224E+02 0.23536392205E+02
 0.23188723454E+02 0.22832954102E+02 0.22322805829E+02 0.21695807781E+02 0.21147671376E+02
 0.20926181116E+02 0.21147671376E+02 0.21695807781E+02 0.22322805829E+02 0.22832954102E+02
 0.23188723454E+02 0.23536392205E+02 0.24134860224E+02 0.25143788211E+02 0.26439468178E+02
 0.27686870068E+02 0.28587229219E+02 0.29014692364E+02 0.29011596232E+02 0.28793731674E+02
 0.20926181116E+02 0.21147671376E+02 0.21695807781E+02 0.22322805829E+02 0.22832954102E+02
 0.23188723454E+02 0.23536392205E+02 0.24134860224E+02 0.25143788211E+02 0.26439468178E+02
 0.27686870068E+02 0.28587229219E+02 0.29014692364E+02 0.29011596232E+02 0.28793731674E+02
 0.28669944902E+02 0.28793731674E+02 0.29011596232E+02 0.29014692364E+02 0.28587229219E+02
 0.27686870068E+02 0.26439468178E+02 0.25143788211E+02 0.24134860224E+02 0.23536392205E+02
 0.23188723454E+02 0.22832954102E+02 0.22322805829E+02 0.21695807781E+02 0.21147671376E+02
 0.14942889607E+02 0.15188711005E+02 0.15873919755E+02 0.16875514263E+02 0.18075665241E+02
 0.19465133573E+02 0.21211181285E+02 0.23536392205E+02 0.26439468178E+02 0.29579938648E+02
 0.32524645600E+02 0.35037044321E+02 0.37024128266E+02 0.38376548149E+02 0.39070054228E+02
 0.39262450382E+02 0.39070054228E+02 0.38376548149E+02 0.37024128266E+02 0.35037044321E+02
 0.32524645600E+02 0.29579938648E+02 0.26439468178E+02 0.23536392205E+02 0.21211181285E+02
 0.19465133573E+02 0.18075665241E+02 0.16875514263E+02 0.15873919755E+02 0.15188711005E+02
 0.10587449542E+02 0.10846591508E+02 0.11616475542E+02 0.12858898411E+02 0.14519002946E+02
 0.16645180934E+02 0.19465133573E+02 0.23188723454E+02 0.27686870068E+02 0.32524645600E+02
 0.37403302074E+02 0.42301197189E+02 0.47009063421E+02 0.50864201913E+02 0.53234319546E+02
 0.53996905869E+02 0.53234319546E+02 0.50864201913E+02 0.47009063421E+02 0.42301197189E+02
 0.37403302074E+02 0.32524645600E+02 0.27686870068E+02 0.23188723454E+02 0.19465133573E+02
 0.16645180934E+02 0.14519002946E+02 0.12858898411E+02 0.11616475542E+02 0.10846591508E+02
 0.77600535299E+01 0.80174509059E+01 0.88010655968E+01 0.10114997524E+02 0.11970474661E+02
 0.14519002946E+02 0.18075665241E+02 0.22832954102E+02 0.28587229219E+02 0.35037044321E+02
 0.42301197189E+02 0.50550323910E+02 0.58963919808E+02 0.65676654573E+02 0.69391284247E+02
 0.70447459736E+02 0.69391284247E+02 0.65676654573E+02 0.58963919808E+02 0.50550323910E+02
 0.42301197189E+02 0.35037044321E+02 0.28587229219E+02 0.22832954102E+02 0.18075665241E+02
 0.14519002946E+02 0.11970474661E+02 0.10114997524E+02 0.88010655968E+01 0.80174509059E+01
 0.60265634744E+01 0.62657298316E+01 0.69985626144E+01 0.82525324842E+01 0.10114997524E+02
 0.12858898411E+02 0.16875514263E+02 0.22322805829E+02 0.29014692364E+02 0.37024128266E+02
 0.47009063421E+02 0.58963919808E+02 0.70447078199E+02 0.77524778683E+02 0.79065920976E+02
 0.78648831071E+02 0.79065920976E+02 0.77524778683E+02 0.70447078199E+02 0.58963919808E+02
 0.47009063421E+02 0.37024128266E+02 0.29014692364E+02 0.22322805829E+02 0.16875514263E+02
 0.12858898411E+02 0.10114997524E+02 0.82525324842E+01 0.69985626144E+01 0.62657298316E+01
 0.49514222602E+01 0.51705025297E+01 0.58396034021E+01 0.69985626144E+01 0.88010655968E+01
 0.11616475542E+02 0.15873919755E+02 0.21695807781E+02 0.29011596232E+02 0.38376548149E+02
 0.50864201913E+02 0.65676654573E+02 0.77524778683E+02 0.79320594088E+02 0.71575727554E+02
 0.66266486845E+02 0.71575727554E+02 0.79320594088E+02 0.77524778683E+02 0.65676654573E+02
 0.50864201913E+02 0.38376548149E+02 0.29011596232E+02 0.21695807781E+02 0.15873919755E+02
 0.11616475542E+02 0.88010655968E+01 0.69985626144E+01 0.58396034021E+01 0.51705025297E+01
 0.43312601546E+01 0.45396366949E+01 0.51705025297E+01 0.62657298316E+01 0.80174509059E+01
 0.10846591508E+02 0.15188711005E+02 0.21147671376E+02 0.28793731674E+02 0.39070054228E+02
 0.53234319546E+02 0.69391284247E+02 0.79065920976E+02 0.71575727554E+02 0.50258572591E+02
 0.38138029091E+02 0.50258572591E+02 0.71575727554E+02 0.79065920976E+02 0.69391284247E+02
 0.53234319546E+02 0.39070054228E+02 0.28793731674E+02 0.21147671376E+02 0.15188711005E+02
 0.10846591508E+02 0.80174509059E+01 0.62657298316E+01 0.51705025297E+01 0.45396366949E+01
 0.41254175470E+01 0.43312601546E+01 0.49514222602E+01 0.60265634744E+01 0.77600535299E+01
 0.10587449542E+02 0.14942889607E+02 0.20926181116E+02 0.28669944902E+02 0.39262450382E+02
 0.53996905869E+02 0.70447459736E+02 0.78648831071E+02 0.66266486845E+02 0.38138029091E+02
 0.22651296571E+02 0.38138029091E+02 0.66266486845E+02 0.78648831071E+02 0.70447459736E+02
 0.53996905869E+02 0.39262450382E+02 0.28669944902E+02 0.20926181116E+02 0.14942889607E+02
 0.10587449542E+02 0.77600535299E+01 0.60265634744E+01 0.49514222602E+01 0.43312601546E+01
 0.43312601546E+01 0.45396366949E+01 0.51705025297E+01 0.62657298316E+01 0.80174509059E+01
 0.10846591508E+02 0.15188711005E+02 0.21147671376E+02 0.28793731674E+02 0.39070054228E+02
 0.53234319546E+02 0.69391284247E+02 0.79065920976E+02 0.71575727554E+02 0.50258572591E+02
 0.38138029091E+02 0.50258572591E+02 0.71575727554E+02 0.79065920976E+02 0.69391284247E+02
 0.53234319546E+02 0.39070054228E+02 0.28793731674E+02 0.21147671376E+02 0.15188711005E+02
 0.10846591508E+02 0.80174509059E+01 0.62657298316E+01 0.51705025297E+01 0.45396366949E+01
 0.49514222602E+01 0.51705025297E+01 0.58396034021E+01 0.69985626144E+01 0.88010655968E+01
 0.11616475542E+02 0.15873919755E+02 0.21695807781E+02 0.29011596232E+02 0.38376548149E+02
 0.50864201913E+02 0.65676654573E+02 0.77524778683E+02 0.79320594088E+02 0.71575727554E+02
 0.66266486845E+02 0.71575727554E+02 0.79320594088E+02 0.77524778683E+02 0.65676654573E+02
 0.50864201913E+02 0.38376548149E+02 0.29011596232E+02 0.21695807781E+02 0.15873919755E+02
 0.11616475542E+02 0.88010655968E+01 0.69985626144E+01 0.58396034021E+01 0.51705025297E+01
 0.60265634744E+01 0.62657298316E+01 0.69985626144E+01 0.82525324842E+01 0.10114997524E+02
 0.12858898411E+02 0.16875514263E+02 0.22322805829E+02 0.29014692364E+02 0.37024128266E+02
 0.47009063421E+02 0.58963919808E+02 0.70447078199E+02 0.77524778683E+02 0.79065920976E+02
 0.78648831071E+02 0.79065920976E+02 0.77524778683E+02 0.70447078199E+02 0.58963919808E+02
 0.47009063421E+02 0.37024128266E+02 0.29014692364E+02 0.22322805829E+02 0.16875514263E+02
 0.12858898411E+02 0.10114997524E+02 0.82525324842E+01 0.69985626144E+01 0.62657298316E+01
 0.77600535299E+01 0.80174509059E+01 0.88010655968E+01 0.10114997524E+02 0.11970474661E+02
 0.14519002946E+02 0.18075665241E+02 0.22832954102E+02 0.28587229219E+02 0.35037044321E+02
 0.42301197189E+02 0.50550323910E+02 0.58963919808E+02 0.65676654573E+02 0.69391284247E+02
 0.70447459736E+02 0.69391284247E+02 0.65676654573E+02 0.58963919808E+02 0.50550323910E+02
 0.42301197189E+02 0.35037044321E+02 0.28587229219E+02 0.22832954102E+02 0.18075665241E+02
 0.14519002946E+02 0.11970474661E+02 0.10114997524E+02 0.88010655968E+01 0.80174509059E+01
 0.10587449542E+02 0.10846591508E+02 0.11616475542E+02 0.12858898411E+02 0.14519002946E+02
 0.16645180934E+02 0.19465133573E+02 0.23188723454E+02 0.27686870068E+02 0.32524645600E+02
 0.37403302074E+02 0.42301197189E+02 0.47009063421E+02 0.50864201913E+02 0.53234319546E+02
 0.53996905869E+02 0.53234319546E+02 0.50864201913E+02 0.47009063421E+02 0.42301197189E+02
 0.37403302074E+02 0.32524645600E+02 0.27686870068E+02 0.23188723454E+02 0.19465133573E+02
 0.16645180934E+02 0.14519002946E+02 0.12858898411E+02 0.11616475542E+02 0.10846591508E+02
 0.14942889607E+02 0.15188711005E+02 0.15873919755E+02 0.16875514263E+02 0.18075665241E+02
 0.19465133573E+02 0.21211181285E+02 0.23536392205E+02 0.26439468178E+02 0.29579938648E+02
 0.32524645600E+02 0.35037044321E+02 0.37024128266E+02 0.38376548149E+02 0.39070054228E+02
 0.39262450382E+02 0.39070054228E+02 0.38376548149E+02 0.37024128266E+02 0.35037044321E+02
 0.32524645600E+02 0.29579938648E+02 0.26439468178E+02 0.23536392205E+02 0.21211181285E+02
 0.19465133573E+02 0.18075665241E+02 0.16875514263E+02 0.15873919755E+02 0.15188711005E+02
 0.20926181116E+02 0.21147671376E+02 0.21695807781E+02 0.22322805829E+02 0.22832954102E+02
 0.23188723454E+02 0.23536392205E+02 0.24134860224E+02 0.25143788211E+02 0.26439468178E+02
 0.27686870068E+02 0.28587229219E+02 0.29014692364E+02 0.29011596232E+02 0.28793731674E+02
 0.28669944902E+02 0.28793731674E+02 0.29011596232E+02 0.29014692364E+02 0.28587229219E+02
 0.27686870068E+02 0.26439468178E+02 0.25143788211E+02 0.24134860224E+02 0.23536392205E+02
 0.23188723454E+02 0.22832954102E+02 0.22322805829E+02 0.21695807781E+02 0.21147671376E+02
 0.28669944902E+02 0.28793731674E+02 0.29011596232E+02 0.29014692364E+02 0.28587229219E+02
 0.27686870068E+02 0.26439468178E+02 0.25143788211E+02 0.24134860224E+02 0.23536392205E+02
 0.23188723454E+02 0.22832954102E+02 0.22322805829E+02 0.21695807781E+02 0.21147671376E+02
 0.20926181116E+02 0.21147671376E+02 0.21695807781E+02 0.22322805829E+02 0.22832954102E+02
 0.23188723454E+02 0.23536392205E+02 0.24134860224E+02 0.25143788211E+02 0.26439468178E+02
 0.27686870068E+02 0.28587229219E+02 0.29014692364E+02 0.29011596232E+02 0.28793731674E+02
 0.39262450382E+02 0.39070054228E+02 0.38376548149E+02 0.37024128266E+02 0.35037044321E+02
 0.32524645600E+02 0.29579938648E+02 0.26439468178E+02 0.23536392205E+02 0.21211181285E+02
 0.19465133573E+02 0.18075665241E+02 0.16875514263E+02 0.15873919755E+02 0.15188711005E+02
 0.14942889607E+02 0.15188711005E+02 0.15873919755E+02 0.16875514263E+02 0.18075665241E+02
 0.19465133573E+02 0.21211181285E+02 0.23536392205E+02 0.26439468178E+02 0.29579938648E+02
 0.32524645600E+02 0.35037044321E+02 0.37024128266E+02 0.38376548149E+02 0.39070054228E+02
 0.53996905869E+02 0.53234319546E+02 0.50864201913E+02 0.47009063421E+02 0.42301197189E+02
 0.37403302074E+02 0.32524645600E+02 0.27686870068E+02 0.23188723454E+02 0.19465133573E+02
 0.16645180934E+02 0.14519002946E+02 0.12858898411E+02 0.11616475542E+02 0.10846591508E+02
 0.10587449542E+02 0.10846591508E+02 0.11616475542E+02 0.12858898411E+02 0.14519002946E+02
 0.16645180934E+02 0.19465133573E+02 0.23188723454E+02 0.27686870068E+02 0.32524645600E+02
 0.37403302074E+02 0.42301197189E+02 0.47009063421E+02 0.50864201913E+02 0.53234319546E+02
 0.70447459736E+02 0.69391284247E+02 0.65676654573E+02 0.58963919808E+02 0.50550323910E+02
 0.42301197189E+02 0.35037044321E+02 0.28587229219E+02 0.22832954102E+02 0.18075665241E+02
 0.14519002946E+02 0.11970474661E+02 0.10114997524E+02 0.88010655968E+01 0.80174509059E+01
 0.77600535299E+01 0.80174509059E+01 0.88010655968E+01 0.10114997524E+02 0.11970474661E+02
 0.14519002946E+02 0.18075665241E+02 0.22832954102E+02 0.28587229219E+02 0.35037044321E+02
 0.42301197189E+02 0.50550323910E+02 0.58963919808E+02 0.65676654573E+02 0.69391284247E+02
 0.78648831071E+02 0.79065920976E+02 0.77524778683E+02 0.70447078199E+02 0.58963919808E+02
 0.47009063421E+02 0.37024128266E+02 0.29014692364E+02 0.22322805829E+02 0.16875514263E+02
 0.12858898411E+02 0.10114997524E+02 0.82525324842E+01 0.69985626144E+01 0.62657298316E+01
 0.60265634744E+01 0.62657298316E+01 0.69985626144E+01 0.82525324842E+01 0.10114997524E+02
 0.12858898411E+02 0.16875514263E+02 0.22322805829E+02 0.29014692364E+02 0.37024128266E+02
 0.47009063421E+02 0.58963919808E+02 0.70447078199E+02 0.77524778683E+02 0.79065920976E+02
 0.66266486845E+02 0.71575727554E+02 0.79320594088E+02 0.77524778683E+02 0.65676654573E+02
 0.50864201913E+02 0.38376548149E+02 0.29011596232E+02 0.21695807781E+02 0.15873919755E+02
 0.11616475542E+02 0.88010655968E+01 0.69985626144E+01 0.58396034021E+01 0.51705025297E+01
 0.49514222602E+01 0.51705025297E+01 0.58396034021E+01 0.69985626144E+01 0.88010655968E+01
 0.11616475542E+02 0.15873919755E+02 0.21695807781E+02 0.29011596232E+02 0.38376548149E+02
 0.50864201913E+02 0.65676654573E+02 0.77524778683E+02 0.79320594088E+02 0.71575727554E+02
 0.38138029091E+02 0.50258572591E+02 0.71575727554E+02 0.79065920976E+02 0.69391284247E+02
 0.53234319546E+02 0.39070054228E+02 0.28793731674E+02 0.21147671376E+02 0.15188711005E+02
 0.10846591508E+02 0.80174509059E+01 0.62657298316E+01 0.51705025297E+01 0.45396366949E+01
 0.43312601546E+01 0.45396366949E+01 0.51705025297E+01 0.62657298316E+01 0.80174509059E+01
 0.10846591508E+02 0.15188711005E+02 0.21147671376E+02 0.28793731674E+02 0.39070054228E+02
 0.53234319546E+02 0.69391284247E+02 0.79065920976E+02 0.71575727554E+02 0.50258572591E+02
 0.38138029091E+02 0.50258572591E+02 0.71575727554E+02 0.79065920976E+02 0.69391284247E+02
 0.53234319546E+02 0.39070054228E+02 0.28793731674E+02 0.21147671376E+02 0.15188711005E+02
 0.10846591508E+02 0.80174509059E+01 0.62657298316E+01 0.51705025297E+01 0.45396366949E+01
 0.43312601546E+01 0.45396366949E+01 0.51705025297E+01 0.62657298316E+01 0.80174509059E+01
 0.10846591508E+02 0.15188711005E+02 0.21147671376E+02 0.28793731674E+02 0.39070054228E+02
 0.53234319546E+02 0.69391284247E+02 0.79065920976E+02 0.71575727554E+02 0.50258572591E+02
 0.50258572591E+02 0.61739823514E+02 0.79015571424E+02 0.83140451173E+02 0.72148491068E+02
 0.55781976917E+02 0.41592113613E+02 0.31115694033E+02 0.23118844948E+02 0.16781625330E+02
 0.12101714578E+02 0.89749075182E+01 0.69568799161E+01 0.56413779754E+01 0.48535177905E+01
 0.45396366949E+01 0.46545730846E+01 0.51649679590E+01 0.60923673416E+01 0.76180462741E+01
 0.10149244870E+02 0.14118350237E+02 0.19643747297E+02 0.26756616926E+02 0.36250554297E+02
 0.49309735129E+02 0.64556288491E+02 0.75056861275E+02 0.71942146818E+02 0.57560499802E+02
 0.71575727554E+02 0.79015571424E+02 0.86466724358E+02 0.83807510288E+02 0.71391618482E+02
 0.56198919865E+02 0.43270739290E+02 0.33298855901E+02 0.25269478449E+02 0.18748517947E+02
 0.13875187729E+02 0.10518590069E+02 0.82268482272E+01 0.66436682284E+01 0.56413779754E+01
 0.51705025297E+01 0.51649679590E+01 0.55705559486E+01 0.63850975270E+01 0.77471792768E+01
 0.10014309435E+02 0.13606714392E+02 0.18667096734E+02 0.25126474334E+02 0.33434568726E+02
 0.44576173234E+02 0.58117562714E+02 0.69955151535E+02 0.74465079806E+02 0.71942146818E+02
 0.79065920976E+02 0.83140451173E+02 0.83807510288E+02 0.77733320568E+02 0.66480599465E+02
 0.54298470179E+02 0.43753651899E+02 0.34930169054E+02 0.27296752497E+02 0.20933922416E+02
 0.16107539650E+02 0.12640761154E+02 0.10102653972E+02 0.82268482272E+01 0.69568799161E+01
 0.62657298316E+01 0.60923673416E+01 0.63850975270E+01 0.71204624035E+01 0.83672606472E+01
 0.10389134852E+02 0.13560754617E+02 0.18053155987E+02 0.23723544520E+02 0.30630486853E+02
 0.39387818320E+02 0.50197480351E+02 0.61370922118E+02 0.69955151535E+02 0.75056861275E+02
 0.69391284247E+02 0.72148491068E+02 0.71391618482E+02 0.66480599465E+02 0.58888747621E+02
 0.50754841176E+02 0.43079497556E+02 0.35821405725E+02 0.29044275706E+02 0.23250214772E+02
 0.18747508492E+02 0.15330919420E+02 0.12640761154E+02 0.10518590069E+02 0.89749075182E+01
 0.80174509059E+01 0.76180462741E+01 0.77471792768E+01 0.83672606472E+01 0.94713403818E+01
 0.11203375747E+02 0.13853839076E+02 0.17608998826E+02 0.22330297841E+02 0.27802709961E+02
 0.34194182923E+02 0.41800978262E+02 0.50197480351E+02 0.58117562714E+02 0.64556288491E+02
 0.53234319546E+02 0.55781976917E+02 0.56198919865E+02 0.54298470179E+02 0.50754841176E+02
 0.46356317805E+02 0.41377392584E+02 0.35923752858E+02 0.30483523891E+02 0.25712485227E+02
 0.21865000044E+02 0.18747508492E+02 0.16107539650E+02 0.13875187729E+02 0.12101714578E+02
 0.10846591508E+02 0.10149244870E+02 0.10014309435E+02 0.10389134852E+02 0.11203375747E+02
 0.12495614900E+02 0.14461845905E+02 0.17281035775E+02 0.20877946246E+02 0.24962074917E+02
 0.29373391308E+02 0.34194182923E+02 0.39387818320E+02 0.44576173234E+02 0.49309735129E+02
 0.39070054228E+02 0.41592113613E+02 0.43270739290E+02 0.43753651899E+02 0.43079497556E+02
 0.41377392584E+02 0.38695967026E+02 0.35279897604E+02 0.31699086890E+02 0.28471731236E+02
 0.25712485227E+02 0.23250214772E+02 0.20933922416E+02 0.18748517947E+02 0.16781625330E+02
 0.15188711005E+02 0.14118350237E+02 0.13606714392E+02 0.13560754617E+02 0.13853839076E+02
 0.14461845905E+02 0.15514103352E+02 0.17175610905E+02 0.19453760357E+02 0.22136545590E+02
 0.24962074917E+02 0.27802709961E+02 0.30630486853E+02 0.33434568726E+02 0.36250554297E+02
 0.28793731674E+02 0.31115694033E+02 0.33298855901E+02 0.34930169054E+02 0.35821405725E+02
 0.35923752858E+02 0.35279897604E+02 0.34140100935E+02 0.32882396387E+02 0.31699086890E+02
 0.30483523891E+02 0.29044275706E+02 0.27296752497E+02 0.25269478449E+02 0.23118844948E+02
 0.21147671376E+02 0.19643747297E+02 0.18667096734E+02 0.18053155987E+02 0.17608998826E+02
 0.17281035775E+02 0.17175610905E+02 0.17465625149E+02 0.18249461907E+02 0.19453760357E+02
 0.20877946246E+02 0.22330297841E+02 0.23723544520E+02 0.25126474334E+02 0.26756616926E+02
 0.21147671376E+02 0.23118844948E+02 0.25269478449E+02 0.27296752497E+02 0.29044275706E+02
 0.30483523891E+02 0.31699086890E+02 0.32882396387E+02 0.34140100935E+02 0.35279897604E+02
 0.35923752858E+02 0.35821405725E+02 0.34930169054E+02 0.33298855901E+02 0.31115694033E+02
 0.28793731674E+02 0.26756616926E+02 0.25126474334E+02 0.23723544520E+02 0.22330297841E+02
 0.20877946246E+02 0.19453760357E+02 0.18249461907E+02 0.17465625149E+02 0.17175610905E+02
 0.17281035775E+02 0.17608998826E+02 0.18053155987E+02 0.18667096734E+02 0.19643747297E+02
 0.15188711005E+02 0.16781625330E+02 0.18748517947E+02 0.20933922416E+02 0.23250214772E+02
 0.25712485227E+02 0.28471731236E+02 0.31699086890E+02 0.35279897604E+02 0.38695967026E+02
 0.41377392584E+02 0.43079497556E+02 0.43753651899E+02 0.43270739290E+02 0.41592113613E+02
 0.39070054228E+02 0.36250554297E+02 0.33434568726E+02 0.30630486853E+02 0.27802709961E+02
 0.24962074917E+02 0.22136545590E+02 0.19453760357E+02 0.17175610905E+02 0.15514103352E+02
 0.14461845905E+02 0.13853839076E+02 0.13560754617E+02 0.13606714392E+02 0.14118350237E+02
 0.10846591508E+02 0.12101714578E+02 0.13875187729E+02 0.16107539650E+02 0.18747508492E+02
 0.21865000044E+02 0.25712485227E+02 0.30483523891E+02 0.35923752858E+02 0.41377392584E+02
 0.46356317805E+02 0.50754841176E+02 0.54298470179E+02 0.56198919865E+02 0.55781976917E+02
 0.53234319546E+02 0.49309735129E+02 0.44576173234E+02 0.39387818320E+02 0.34194182923E+02
 0.29373391308E+02 0.24962074917E+02 0.20877946246E+02 0.17281035775E+02 0.14461845905E+02
 0.12495614900E+02 0.11203375747E+02 0.10389134852E+02 0.10014309435E+02 0.10149244870E+02
 0.80174509059E+01 0.89749075182E+01 0.10518590069E+02 0.12640761154E+02 0.15330919420E+02
 0.18747508492E+02 0.23250214772E+02 0.29044275706E+02 0.35821405725E+02 0.43079497556E+02
 0.50754841176E+02 0.58888747621E+02 0.66480599465E+02 0.71391618482E+02 0.72148491068E+02
 0.69391284247E+02 0.64556288491E+02 0.58117562714E+02 0.50197480351E+02 0.41800978262E+02
 0.34194182923E+02 0.27802709961E+02 0.22330297841E+02 0.17608998826E+02 0.13853839076E+02
 0.11203375747E+02 0.94713403818E+01 0.83672606472E+01 0.77471792768E+01 0.76180462741E+01
 0.62657298316E+01 0.69568799161E+01 0.82268482272E+01 0.10102653972E+02 0.12640761154E+02
 0.16107539650E+02 0.20933922416E+02 0.27296752497E+02 0.34930169054E+02 0.43753651899E+02
 0.54298470179E+02 0.66480599465E+02 0.77733320568E+02 0.83807510288E+02 0.83140451173E+02
 0.79065920976E+02 0.75056861275E+02 0.69955151535E+02 0.61370922118E+02 0.50197480351E+02
 0.39387818320E+02 0.30630486853E+02 0.23723544520E+02 0.18053155987E+02 0.13560754617E+02
 0.10389134852E+02 0.83672606472E+01 0.71204624035E+01 0.63850975270E+01 0.60923673416E+01
 0.51705025297E+01 0.56413779754E+01 0.66436682284E+01 0.82268482272E+01 0.10518590069E+02
 0.13875187729E+02 0.18748517947E+02 0.25269478449E+02 0.33298855901E+02 0.43270739290E+02
 0.56198919865E+02 0.71391618482E+02 0.83807510288E+02 0.86466724358E+02 0.79015571424E+02
 0.71575727554E+02 0.71942146818E+02 0.74465079806E+02 0.69955151535E+02 0.58117562714E+02
 0.44576173234E+02 0.33434568726E+02 0.25126474334E+02 0.18667096734E+02 0.13606714392E+02
 0.10014309435E+02 0.77471792768E+01 0.63850975270E+01 0.55705559486E+01 0.51649679590E+01
 0.45396366949E+01 0.48535177905E+01 0.56413779754E+01 0.69568799161E+01 0.89749075182E+01
 0.12101714578E+02 0.16781625330E+02 0.23118844948E+02 0.31115694033E+02 0.41592113613E+02
 0.55781976917E+02 0.72148491068E+02 0.83140451173E+02 0.79015571424E+02 0.61739823514E+02
 0.50258572591E+02 0.57560499802E+02 0.71942146818E+02 0.75056861275E+02 0.64556288491E+02
 0.49309735129E+02 0.36250554297E+02 0.26756616926E+02 0.19643747297E+02 0.14118350237E+02
 0.10149244870E+02 0.76180462741E+01 0.60923673416E+01 0.51649679590E+01 0.46545730846E+01
 0.43312601546E+01 0.45396366949E+01 0.51705025297E+01 0.62657298316E+01 0.80174509059E+01
 0.10846591508E+02 0.15188711005E+02 0.21147671376E+02 0.28793731674E+02 0.39070054228E+02
 0.53234319546E+02 0.69391284247E+02 0.79065920976E+02 0.71575727554E+02 0.50258572591E+02
 0.38138029091E+02 0.50258572591E+02 0.71575727554E+02 0.79065920976E+02 0.69391284247E+02
 0.53234319546E+02 0.39070054228E+02 0.28793731674E+02 0.21147671376E+02 0.15188711005E+02
 0.10846591508E+02 0.80174509059E+01 0.62657298316E+01 0.51705025297E+01 0.45396366949E+01
 0.45396366949E+01 0.46545730846E+01 0.51649679590E+01 0.60923673416E+01 0.76180462741E+01
 0.10149244870E+02 0.14118350237E+02 0.19643747297E+02 0.26756616926E+02 0.36250554297E+02
 0.49309735129E+02 0.64556288491E+02 0.75056861275E+02 0.71942146818E+02 0.57560499802E+02
 0.50258572591E+02 0.61739823514E+02 0.79015571424E+02 0.83140451173E+02 0.72148491068E+02
 0.55781976917E+02 0.41592113613E+02 0.31115694033E+02 0.23118844948E+02 0.16781625330E+02
 0.12101714578E+02 0.89749075182E+01 0.69568799161E+01 0.56413779754E+01 0.48535177905E+01
 0.51705025297E+01 0.51649679590E+01 0.55705559486E+01 0.63850975270E+01 0.77471792768E+01
 0.10014309435E+02 0.13606714392E+02 0.18667096734E+02 0.25126474334E+02 0.33434568726E+02
 0.44576173234E+02 0.58117562714E+02 0.69955151535E+02 0.74465079806E+02 0.71942146818E+02
 0.71575727554E+02 0.79015571424E+02 0.86466724358E+02 0.83807510288E+02 0.71391618482E+02
 0.56198919865E+02 0.43270739290E+02 0.33298855901E+02 0.25269478449E+02 0.18748517947E+02
 0.13875187729E+02 0.10518590069E+02 0.82268482272E+01 0.66436682284E+01 0.56413779754E+01
 0.62657298316E+01 0.60923673416E+01 0.63850975270E+01 0.71204624035E+01 0.83672606472E+01
 0.10389134852E+02 0.13560754617E+02 0.18053155987E+02 0.23723544520E+02 0.30630486853E+02
 0.39387818320E+02 0.50197480351E+02 0.61370922118E+02 0.69955151535E+02 0.75056861275E+02
 0.79065920976E+02 0.83140451173E+02 0.83807510288E+02 0.77733320568E+02 0.66480599465E+02
 0.54298470179E+02 0.43753651899E+02 0.34930169054E+02 0.27296752497E+02 0.20933922416E+02
 0.16107539650E+02 0.12640761154E+02 0.10102653972E+02 0.82268482272E+01 0.69568799161E+01
 0.80174509059E+01 0.76180462741E+01 0.77471792768E+01 0.83672606472E+01 0.94713403818E+01
 0.11203375747E+02 0.13853839076E+02 0.17608998826E+02 0.22330297841E+02 0.27802709961E+02
 0.34194182923E+02 0.41800978262E+02 0.50197480351E+02 0.58117562714E+02 0.64556288491E+02
 0.69391284247E+02 0.72148491068E+02 0.71391618482E+02 0.66480599465E+02 0.58888747621E+02
 0.50754841176E+02 0.43079497556E+02 0.35821405725E+02 0.29044275706E+02 0.23250214772E+02
 0.18747508492E+02 0.15330919420E+02 0.12640761154E+02 0.10518590069E+02 0.89749075182E+01
 0.10846591508E+02 0.10149244870E+02 0.10014309435E+02 0.10389134852E+02 0.11203375747E+02
 0.12495614900E+02 0.14461845905E+02 0.17281035775E+02 0.20877946246E+02 0.24962074917E+02
 0.29373391308E+02 0.34194182923E+02 0.39387818320E+02 0.44576173234E+02 0.49309735129E+02
 0.53234319546E+02 0.55781976917E+02 0.56198919865E+02 0.54298470179E+02 0.50754841176E+02
 0.46356317805E+02 0.41377392584E+02 0.35923752858E+02 0.30483523891E+02 0.25712485227E+02
 0.21865000044E+02 0.18747508492E+02 0.16107539650E+02 0.13875187729E+02 0.12101714578E+02
 0.15188711005E+02 0.14118350237E+02 0.13606714392E+02 0.13560754617E+02 0.13853839076E+02
 0.14461845905E+02 0.15514103352E+02 0.17175610905E+02 0.19453760357E+02 0.22136545590E+02
 0.24962074917E+02 0.27802709961E+02 0.30630486853E+02 0.33434568726E+02 0.36250554297E+02
 0.39070054228E+02 0.41592113613E+02 0.43270739290E+02 0.43753651899E+02 0.43079497556E+02
 0.41377392584E+02 0.38695967026E+02 0.35279897604E+02 0.31699086890E+02 0.28471731236E+02
 0.25712485227E+02 0.23250214772E+02 0.20933922416E+02 0.18748517947E+02 0.16781625330E+02
 0.21147671376E+02 0.19643747297E+02 0.18667096734E+02 0.18053155987E+02 0.17608998826E+02
 0.17281035775E+02 0.17175610905E+02 0.17465625149E+02 0.18249461907E+02 0.19453760357E+02
 0.20877946246E+02 0.22330297841E+02 0.23723544520E+02 0.25126474334E+02 0.26756616926E+02
 0.28793731674E+02 0.31115694033E+02 0.33298855901E+02 0.34930169054E+02 0.35821405725E+02
 0.35923752858E+02 0.35279897604E+02 0.34140100935E+02 0.32882396387E+02 0.31699086890E+02
 0.30483523891E+02 0.29044275706E+02 0.27296752497E+02 0.25269478449E+02 0.23118844948E+02
 0.28793731674E+02 0.26756616926E+02 0.25126474334E+02 0.23723544520E+02 0.22330297841E+02
 0.20877946246E+02 0.19453760357E+02 0.18249461907E+02 0.17465625149E+02 0.17175610905E+02
 0.17281035775E+02 0.17608998826E+02 0.18053155987E+02 0.18667096734E+02 0.19643747297E+02
 0.21147671376E+02 0.23118844948E+02 0.25269478449E+02 0.27296752497E+02 0.29044275706E+02
 0.30483523891E+02 0.31699086890E+02 0.32882396387E+02 0.34140100935E+02 0.35279897604E+02
 0.35923752858E+02 0.35821405725E+02 0.34930169054E+02 0.33298855901E+02 0.31115694033E+02