Na_PW                                   
   1.00000000000000     
     3.556000    0.000000    0.000000
     0.000000    3.556000    0.000000
     0.000000    0.000000    3.556000
   C 
     8
Direct
  0.000000  0.000000  0.000000
  0.000000  0.500000  0.500000
  0.500000  0.500000  0.000000
  0.500000  0.000000  0.500000
  0.750000  0.250000  0.750000
  0.250000  0.250000  0.250000
  0.250000  0.750000  0.750000
  0.750000  0.750000  0.250000
 
   30   30   30
 0.30910312997E+02 -.14498649343E+02 -.84660472174E+02 -.92654234379E+02 -.49816037996E+02
 -.24526907041E+02 -.15313250659E+02 -.72881262917E+01 -.40998022100E+01 -.34881772952E+00
 0.15265647342E+01 0.37144608928E+01 0.39864343116E+01 0.52014439467E+01 0.50872289764E+01
 0.50193888198E+01 0.50872289764E+01 0.52014439467E+01 0.39864343116E+01 0.37144608928E+01
 0.15265647342E+01 -.34881772952E+00 -.40998022100E+01 -.72881262917E+01 -.15313250659E+02
 -.24526907041E+02 -.49816037996E+02 -.92654234379E+02 -.84660472174E+02 -.14498649343E+02
 -.14498649343E+02 -.46202377185E+02 -.92961535689E+02 -.87505860938E+02 -.45075689544E+02
 -.23532331785E+02 -.14745706825E+02 -.72564611599E+01 -.41855274862E+01 -.45516011561E+00
 0.13489673962E+01 0.36053381813E+01 0.41061479523E+01 0.50069039661E+01 0.50035501763E+01
 0.50872289764E+01 0.50035501763E+01 0.50069039661E+01 0.41061479523E+01 0.36053381813E+01
 0.13489673962E+01 -.45516011561E+00 -.41855274862E+01 -.72564611599E+01 -.14745706825E+02
 -.23532331785E+02 -.45075689544E+02 -.87505860938E+02 -.92961535689E+02 -.46202377185E+02
 -.84660472174E+02 -.92961535689E+02 -.97697711902E+02 -.67878363238E+02 -.34030999080E+02
 -.21632185595E+02 -.12711350360E+02 -.73978409774E+01 -.38818609111E+01 -.11133706719E+01
 0.10556319440E+01 0.28762018519E+01 0.37409217079E+01 0.47013766264E+01 0.50069039661E+01
 0.52014439467E+01 0.50069039661E+01 0.47013766264E+01 0.37409217079E+01 0.28762018519E+01
 0.10556319440E+01 -.11133706719E+01 -.38818609111E+01 -.73978409774E+01 -.12711350360E+02
 -.21632185595E+02 -.34030999080E+02 -.67878363238E+02 -.97697711902E+02 -.92961535689E+02
 -.92654234379E+02 -.87505860938E+02 -.67878363238E+02 -.40463682388E+02 -.25961981887E+02
 -.17689151785E+02 -.10873866141E+02 -.72070268008E+01 -.40376810126E+01 -.18641511796E+01
 0.35516534825E+00 0.16249549126E+01 0.32203319386E+01 0.37409217079E+01 0.41061479523E+01
 0.39864343116E+01 0.41061479523E+01 0.37409217079E+01 0.32203319386E+01 0.16249549126E+01
 0.35516534825E+00 -.18641511796E+01 -.40376810126E+01 -.72070268008E+01 -.10873866141E+02
 -.17689151785E+02 -.25961981887E+02 -.40463682388E+02 -.67878363238E+02 -.87505860938E+02
 -.49816037996E+02 -.45075689544E+02 -.34030999080E+02 -.25961981887E+02 -.19543674175E+02
 -.13383211747E+02 -.94890929280E+01 -.64887020585E+01 -.43565462228E+01 -.24318764189E+01
 -.92295608465E+00 0.57369288232E+00 0.16249549126E+01 0.28762018519E+01 0.36053381813E+01
 0.37144608928E+01 0.36053381813E+01 0.28762018519E+01 0.16249549126E+01 0.57369288232E+00
 -.92295608465E+00 -.24318764189E+01 -.43565462228E+01 -.64887020585E+01 -.94890929280E+01
 -.13383211747E+02 -.19543674175E+02 -.25961981887E+02 -.34030999080E+02 -.45075689544E+02
 -.24526907041E+02 -.23532331785E+02 -.21632185595E+02 -.17689151785E+02 -.13383211747E+02
 -.10350658545E+02 -.79732353945E+01 -.63736701813E+01 -.47670327928E+01 -.32005284912E+01
 -.19440071502E+01 -.92295608465E+00 0.35516534825E+00 0.10556319440E+01 0.13489673962E+01
 0.15265647342E+01 0.13489673962E+01 0.10556319440E+01 0.35516534825E+00 -.92295608465E+00
 -.19440071502E+01 -.32005284912E+01 -.47670327928E+01 -.63736701813E+01 -.79732353945E+01
 -.10350658545E+02 -.13383211747E+02 -.17689151785E+02 -.21632185595E+02 -.23532331785E+02
 -.15313250659E+02 -.14745706825E+02 -.12711350360E+02 -.10873866141E+02 -.94890929280E+01
 -.79732353945E+01 -.72824174179E+01 -.63610695415E+01 -.54139187189E+01 -.44101027731E+01
 -.32005284912E+01 -.24318764189E+01 -.18641511796E+01 -.11133706719E+01 -.45516011561E+00
 -.34881772952E+00 -.45516011561E+00 -.11133706719E+01 -.18641511796E+01 -.24318764189E+01
 -.32005284912E+01 -.44101027731E+01 -.54139187189E+01 -.63610695415E+01 -.72824174179E+01
 -.79732353945E+01 -.94890929280E+01 -.10873866141E+02 -.12711350360E+02 -.14745706825E+02
 -.72881262917E+01 -.72564611599E+01 -.73978409774E+01 -.72070268008E+01 -.64887020585E+01
 -.63736701813E+01 -.63610695415E+01 -.58901753011E+01 -.55529241653E+01 -.54139187189E+01
 -.47670327928E+01 -.43565462228E+01 -.40376810126E+01 -.38818609111E+01 -.41855274862E+01
 -.40998022100E+01 -.41855274862E+01 -.38818609111E+01 -.40376810126E+01 -.43565462228E+01
 -.47670327928E+01 -.54139187189E+01 -.55529241653E+01 -.58901753011E+01 -.63610695415E+01
 -.63736701813E+01 -.64887020585E+01 -.72070268008E+01 -.73978409774E+01 -.72564611599E+01
 -.40998022100E+01 -.41855274862E+01 -.38818609111E+01 -.40376810126E+01 -.43565462228E+01
 -.47670327928E+01 -.54139187189E+01 -.55529241653E+01 -.58901753011E+01 -.63610695415E+01
 -.63736701813E+01 -.64887020585E+01 -.72070268008E+01 -.73978409774E+01 -.72564611599E+01
 -.72881262917E+01 -.72564611599E+01 -.73978409774E+01 -.72070268008E+01 -.64887020585E+01
 -.63736701813E+01 -.63610695415E+01 -.58901753011E+01 -.55529241653E+01 -.54139187189E+01
 -.47670327928E+01 -.43565462228E+01 -.40376810126E+01 -.38818609111E+01 -.41855274862E+01
 -.34881772952E+00 -.45516011561E+00 -.11133706719E+01 -.18641511796E+01 -.24318764189E+01
 -.32005284912E+01 -.44101027731E+01 -.54139187189E+01 -.63610695415E+01 -.72824174179E+01
 -.79732353945E+01 -.94890929280E+01 -.10873866141E+02 -.12711350360E+02 -.14745706825E+02
 -.15313250659E+02 -.14745706825E+02 -.12711350360E+02 -.10873866141E+02 -.94890929280E+01
 -.79732353945E+01 -.72824174179E+01 -.63610695415E+01 -.54139187189E+01 -.44101027731E+01
 -.32005284912E+01 -.24318764189E+01 -.18641511796E+01 -.11133706719E+01 -.45516011561E+00
 0.15265647342E+01 0.13489673962E+01 0.10556319440E+01 0.35516534825E+00 -.92295608465E+00
 -.19440071502E+01 -.32005284912E+01 -.47670327928E+01 -.63736701813E+01 -.79732353945E+01
 -.10350658545E+02 -.13383211747E+02 -.17689151785E+02 -.21632185595E+02 -.23532331785E+02
 -.24526907041E+02 -.23532331785E+02 -.21632185595E+02 -.17689151785E+02 -.13383211747E+02
 -.10350658545E+02 -.79732353945E+01 -.63736701813E+01 -.47670327928E+01 -.32005284912E+01
 -.19440071502E+01 -.92295608465E+00 0.35516534825E+00 0.10556319440E+01 0.13489673962E+01
 0.37144608928E+01 0.36053381813E+01 0.28762018519E+01 0.16249549126E+01 0.57369288232E+00
 -.92295608465E+00 -.24318764189E+01 -.43565462228E+01 -.64887020585E+01 -.94890929280E+01
 -.13383211747E+02 -.19543674175E+02 -.25961981887E+02 -.34030999080E+02 -.45075689544E+02
 -.49816037996E+02 -.45075689544E+02 -.34030999080E+02 -.25961981887E+02 -.19543674175E+02
 -.13383211747E+02 -.94890929280E+01 -.64887020585E+01 -.43565462228E+01 -.24318764189E+01
 -.92295608465E+00 0.57369288232E+00 0.16249549126E+01 0.28762018519E+01 0.36053381813E+01
 0.39864343116E+01 0.41061479523E+01 0.37409217079E+01 0.32203319386E+01 0.16249549126E+01
 0.35516534825E+00 -.18641511796E+01 -.40376810126E+01 -.72070268008E+01 -.10873866141E+02
 -.17689151785E+02 -.25961981887E+02 -.40463682388E+02 -.67878363238E+02 -.87505860938E+02
 -.92654234379E+02 -.87505860938E+02 -.67878363238E+02 -.40463682388E+02 -.25961981887E+02
 -.17689151785E+02 -.10873866141E+02 -.72070268008E+01 -.40376810126E+01 -.18641511796E+01
 0.35516534825E+00 0.16249549126E+01 0.32203319386E+01 0.37409217079E+01 0.41061479523E+01
 0.52014439467E+01 0.50069039661E+01 0.47013766264E+01 0.37409217079E+01 0.28762018519E+01
 0.10556319440E+01 -.11133706719E+01 -.38818609111E+01 -.73978409774E+01 -.12711350360E+02
 -.21632185595E+02 -.34030999080E+02 -.67878363238E+02 -.97697711902E+02 -.92961535689E+02
 -.84660472174E+02 -.92961535689E+02 -.97697711902E+02 -.67878363238E+02 -.34030999080E+02
 -.21632185595E+02 -.12711350360E+02 -.73978409774E+01 -.38818609111E+01 -.11133706719E+01
 0.10556319440E+01 0.28762018519E+01 0.37409217079E+01 0.47013766264E+01 0.50069039661E+01
 0.50872289764E+01 0.50035501763E+01 0.50069039661E+01 0.41061479523E+01 0.36053381813E+01
 0.13489673962E+01 -.45516011561E+00 -.41855274862E+01 -.72564611599E+01 -.14745706825E+02
 -.23532331785E+02 -.45075689544E+02 -.87505860938E+02 -.92961535689E+02 -.46202377185E+02
 -.14498649343E+02 -.46202377185E+02 -.92961535689E+02 -.87505860938E+02 -.45075689544E+02
 -.23532331785E+02 -.14745706825E+02 -.72564611599E+01 -.41855274862E+01 -.45516011561E+00
 0.13489673962E+01 0.36053381813E+01 0.41061479523E+01 0.50069039661E+01 0.50035501763E+01
 0.50193888198E+01 0.50872289764E+01 0.52014439467E+01 0.39864343116E+01 0.37144608928E+01
 0.15265647342E+01 -.34881772952E+00 -.40998022100E+01 -.72881262917E+01 -.15313250659E+02
 -.24526907041E+02 -.49816037996E+02 -.92654234379E+02 -.84660472174E+02 -.14498649343E+02
 0.30910312997E+02 -.14498649343E+02 -.84660472174E+02 -.92654234379E+02 -.49816037996E+02
 -.24526907041E+02 -.15313250659E+02 -.72881262917E+01 -.40998022100E+01 -.34881772952E+00
 0.15265647342E+01 0.37144608928E+01 0.39864343116E+01 0.52014439467E+01 0.50872289764E+01
 0.50872289764E+01 0.50035501763E+01 0.50069039661E+01 0.41061479523E+01 0.36053381813E+01
 0.13489673962E+01 -.45516011561E+00 -.41855274862E+01 -.72564611599E+01 -.14745706825E+02
 -.23532331785E+02 -.45075689544E+02 -.87505860938E+02 -.92961535689E+02 -.46202377185E+02
 -.14498649343E+02 -.46202377185E+02 -.92961535689E+02 -.87505860938E+02 -.45075689544E+02
 -.23532331785E+02 -.14745706825E+02 -.72564611599E+01 -.41855274862E+01 -.45516011561E+00
 0.13489673962E+01 0.36053381813E+01 0.41061479523E+01 0.50069039661E+01 0.50035501763E+01
 0.52014439467E+01 0.50069039661E+01 0.47013766264E+01 0.37409217079E+01 0.28762018519E+01
 0.10556319440E+01 -.11133706719E+01 -.38818609111E+01 -.73978409774E+01 -.12711350360E+02
 -.21632185595E+02 -.34030999080E+02 -.67878363238E+02 -.97697711902E+02 -.92961535689E+02
 -.84660472174E+02 -.92961535689E+02 -.97697711902E+02 -.67878363238E+02 -.34030999080E+02
 -.21632185595E+02 -.12711350360E+02 -.73978409774E+01 -.38818609111E+01 -.11133706719E+01
 0.10556319440E+01 0.28762018519E+01 0.37409217079E+01 0.47013766264E+01 0.50069039661E+01
 0.39864343116E+01 0.41061479523E+01 0.37409217079E+01 0.32203319386E+01 0.16249549126E+01
 0.35516534825E+00 -.18641511796E+01 -.40376810126E+01 -.72070268008E+01 -.10873866141E+02
 -.17689151785E+02 -.25961981887E+02 -.40463682388E+02 -.67878363238E+02 -.87505860938E+02
 -.92654234379E+02 -.87505860938E+02 -.67878363238E+02 -.40463682388E+02 -.25961981887E+02
 -.17689151785E+02 -.10873866141E+02 -.72070268008E+01 -.40376810126E+01 -.18641511796E+01
 0.35516534825E+00 0.16249549126E+01 0.32203319386E+01 0.37409217079E+01 0.41061479523E+01
 0.37144608928E+01 0.36053381813E+01 0.28762018519E+01 0.16249549126E+01 0.57369288232E+00
 -.92295608465E+00 -.24318764189E+01 -.43565462228E+01 -.64887020585E+01 -.94890929280E+01
 -.13383211747E+02 -.19543674175E+02 -.25961981887E+02 -.34030999080E+02 -.45075689544E+02
 -.49816037996E+02 -.45075689544E+02 -.34030999080E+02 -.25961981887E+02 -.19543674175E+02
 -.13383211747E+02 -.94890929280E+01 -.64887020585E+01 -.43565462228E+01 -.24318764189E+01
 -.92295608465E+00 0.57369288232E+00 0.16249549126E+01 0.28762018519E+01 0.36053381813E+01
 0.15265647342E+01 0.13489673962E+01 0.10556319440E+01 0.35516534825E+00 -.92295608465E+00
 -.19440071502E+01 -.32005284912E+01 -.47670327928E+01 -.63736701813E+01 -.79732353945E+01
 -.10350658545E+02 -.13383211747E+02 -.17689151785E+02 -.21632185595E+02 -.23532331785E+02
 -.24526907041E+02 -.23532331785E+02 -.21632185595E+02 -.17689151785E+02 -.13383211747E+02
 -.10350658545E+02 -.79732353945E+01 -.63736701813E+01 -.47670327928E+01 -.32005284912E+01
 -.19440071502E+01 -.92295608465E+00 0.35516534825E+00 0.10556319440E+01 0.13489673962E+01
 -.34881772952E+00 -.45516011561E+00 -.11133706719E+01 -.18641511796E+01 -.24318764189E+01
 -.32005284912E+01 -.44101027731E+01 -.54139187189E+01 -.63610695415E+01 -.72824174179E+01
 -.79732353945E+01 -.94890929280E+01 -.10873866141E+02 -.12711350360E+02 -.14745706825E+02
 -.15313250659E+02 -.14745706825E+02 -.12711350360E+02 -.10873866141E+02 -.94890929280E+01
 -.79732353945E+01 -.72824174179E+01 -.63610695415E+01 -.54139187189E+01 -.44101027731E+01
 -.32005284912E+01 -.24318764189E+01 -.18641511796E+01 -.11133706719E+01 -.45516011561E+00
 -.40998022100E+01 -.41855274862E+01 -.38818609111E+01 -.40376810126E+01 -.43565462228E+01
 -.47670327928E+01 -.54139187189E+01 -.55529241653E+01 -.58901753011E+01 -.63610695415E+01
 -.63736701813E+01 -.64887020585E+01 -.72070268008E+01 -.73978409774E+01 -.72564611599E+01
 -.72881262917E+01 -.72564611599E+01 -.73978409774E+01 -.72070268008E+01 -.64887020585E+01
 -.63736701813E+01 -.63610695415E+01 -.58901753011E+01 -.55529241653E+01 -.54139187189E+01
 -.47670327928E+01 -.43565462228E+01 -.40376810126E+01 -.38818609111E+01 -.41855274862E+01
 -.72881262917E+01 -.72564611599E+01 -.73978409774E+01 -.72070268008E+01 -.64887020585E+01
 -.63736701813E+01 -.63610695415E+01 -.58901753011E+01 -.55529241653E+01 -.54139187189E+01
 -.47670327928E+01 -.43565462228E+01 -.40376810126E+01 -.38818609111E+01 -.41855274862E+01
 -.40998022100E+01 -.41855274862E+01 -.38818609111E+01 -.40376810126E+01 -.43565462228E+01
 -.47670327928E+01 -.54139187189E+01 -.55529241653E+01 -.58901753011E+01 -.63610695415E+01
 -.63736701813E+01 -.64887020585E+01 -.72070268008E+01 -.73978409774E+01 -.72564611599E+01
 -.15313250659E+02 -.14745706825E+02 -.12711350360E+02 -.10873866141E+02 -.94890929280E+01
 -.79732353945E+01 -.72824174179E+01 -.63610695415E+01 -.54139187189E+01 -.44101027731E+01
 -.32005284912E+01 -.24318764189E+01 -.18641511796E+01 -.11133706719E+01 -.45516011561E+00
 -.34881772952E+00 -.45516011561E+00 -.11133706719E+01 -.18641511796E+01 -.24318764189E+01
 -.32005284912E+01 -.44101027731E+01 -.54139187189E+01 -.63610695415E+01 -.72824174179E+01
 -.79732353945E+01 -.94890929280E+01 -.10873866141E+02 -.12711350360E+02 -.14745706825E+02
 -.24526907041E+02 -.23532331785E+02 -.21632185595E+02 -.17689151785E+02 -.13383211747E+02
 -.10350658545E+02 -.79732353945E+01 -.63736701813E+01 -.47670327928E+01 -.32005284912E+01
 -.19440071502E+01 -.92295608465E+00 0.35516534825E+00 0.10556319440E+01 0.13489673962E+01
 0.15265647342E+01 0.13489673962E+01 0.10556319440E+01 0.35516534825E+00 -.92295608465E+00
 -.19440071502E+01 -.32005284912E+01 -.47670327928E+01 -.63736701813E+01 -.79732353945E+01
 -.10350658545E+02 -.13383211747E+02 -.17689151785E+02 -.21632185595E+02 -.23532331785E+02
 -.49816037996E+02 -.45075689544E+02 -.34030999080E+02 -.25961981887E+02 -.19543674175E+02
 -.13383211747E+02 -.94890929280E+01 -.64887020585E+01 -.43565462228E+01 -.24318764189E+01
 -.92295608465E+00 0.57369288232E+00 0.16249549126E+01 0.28762018519E+01 0.36053381813E+01
 0.37144608928E+01 0.36053381813E+01 0.28762018519E+01 0.16249549126E+01 0.57369288232E+00
 -.92295608465E+00 -.24318764189E+01 -.43565462228E+01 -.64887020585E+01 -.94890929280E+01
 -.13383211747E+02 -.19543674175E+02 -.25961981887E+02 -.34030999080E+02 -.45075689544E+02
 -.92654234379E+02 -.87505860938E+02 -.67878363238E+02 -.40463682388E+02 -.25961981887E+02
 -.17689151785E+02 -.10873866141E+02 -.72070268008E+01 -.40376810126E+01 -.18641511796E+01
 0.35516534825E+00 0.16249549126E+01 0.32203319386E+01 0.37409217079E+01 0.41061479523E+01
 0.39864343116E+01 0.41061479523E+01 0.37409217079E+01 0.32203319386E+01 0.16249549126E+01
 0.35516534825E+00 -.18641511796E+01 -.40376810126E+01 -.72070268008E+01 -.10873866141E+02
 -.17689151785E+02 -.25961981887E+02 -.40463682388E+02 -.67878363238E+02 -.87505860938E+02
 -.84660472174E+02 -.92961535689E+02 -.97697711902E+02 -.67878363238E+02 -.34030999080E+02
 -.21632185595E+02 -.12711350360E+02 -.73978409774E+01 -.38818609111E+01 -.11133706719E+01
 0.10556319440E+01 0.28762018519E+01 0.37409217079E+01 0.47013766264E+01 0.50069039661E+01
 0.52014439467E+01 0.50069039661E+01 0.47013766264E+01 0.37409217079E+01 0.28762018519E+01
 0.10556319440E+01 -.11133706719E+01 -.38818609111E+01 -.73978409774E+01 -.12711350360E+02
 -.21632185595E+02 -.34030999080E+02 -.67878363238E+02 -.97697711902E+02 -.92961535689E+02
 -.14498649343E+02 -.46202377185E+02 -.92961535689E+02 -.87505860938E+02 -.45075689544E+02
 -.23532331785E+02 -.14745706825E+02 -.72564611599E+01 -.41855274862E+01 -.45516011561E+00
 0.13489673962E+01 0.36053381813E+01 0.41061479523E+01 0.50069039661E+01 0.50035501763E+01
 0.50872289764E+01 0.50035501763E+01 0.50069039661E+01 0.41061479523E+01 0.36053381813E+01
 0.13489673962E+01 -.45516011561E+00 -.41855274862E+01 -.72564611599E+01 -.14745706825E+02
 -.23532331785E+02 -.45075689544E+02 -.87505860938E+02 -.92961535689E+02 -.46202377185E+02
 -.14498649343E+02 -.46202377185E+02 -.92961535689E+02 -.87505860938E+02 -.45075689544E+02
 -.23532331785E+02 -.14745706825E+02 -.72564611599E+01 -.41855274862E+01 -.45516011561E+00
 0.13489673962E+01 0.36053381813E+01 0.41061479523E+01 0.50069039661E+01 0.50035501763E+01
 0.50872289764E+01 0.50035501763E+01 0.50069039661E+01 0.41061479523E+01 0.36053381813E+01
 0.13489673962E+01 -.45516011561E+00 -.41855274862E+01 -.72564611599E+01 -.14745706825E+02
 -.23532331785E+02 -.45075689544E+02 -.87505860938E+02 -.92961535689E+02 -.46202377185E+02
 -.46202377185E+02 -.67471289448E+02 -.96779092116E+02 -.82070862474E+02 -.40960613939E+02
 -.23229821631E+02 -.14592108398E+02 -.78708793432E+01 -.47580733206E+01 -.13544848030E+01
 0.51965259884E+00 0.27644094869E+01 0.39294246153E+01 0.51615207873E+01 0.45830205679E+01
 0.50035501763E+01 0.37931991606E+01 0.46566339994E+01 0.41199190502E+01 0.37974215456E+01
 0.18597873110E+01 0.91464520538E-01 -.34634873604E+01 -.66093276383E+01 -.13559458231E+02
 -.22453881536E+02 -.40491360295E+02 -.81577546479E+02 -.96878211491E+02 -.67787395868E+02
 -.92961535689E+02 -.96779092116E+02 -.94389681481E+02 -.61868020720E+02 -.32017021293E+02
 -.21805203195E+02 -.13250903859E+02 -.87849571268E+01 -.52444830761E+01 -.27944449484E+01
 -.40123422386E+00 0.13127866627E+01 0.27013496990E+01 0.43164703445E+01 0.51615207873E+01
 0.50069039661E+01 0.46566339994E+01 0.43510176058E+01 0.39321104962E+01 0.35200033160E+01
 0.23383383217E+01 0.11761803991E-01 -.25887831063E+01 -.63391183921E+01 -.11158560029E+02
 -.20209990361E+02 -.31060019027E+02 -.61045010841E+02 -.93838346074E+02 -.96878211491E+02
 -.87505860938E+02 -.82070862474E+02 -.61868020720E+02 -.37440858181E+02 -.25916473300E+02
 -.18322867107E+02 -.12348248127E+02 -.89773532965E+01 -.61029011748E+01 -.40716908312E+01
 -.18812433941E+01 -.37084739131E+00 0.15154423919E+01 0.27013496990E+01 0.39294246153E+01
 0.41061479523E+01 0.41199190502E+01 0.39321104962E+01 0.39443114823E+01 0.30838264191E+01
 0.21070424717E+01 0.47911441396E-01 -.21370958614E+01 -.53346045432E+01 -.91398059401E+01
 -.15795458640E+02 -.24186433269E+02 -.36419910809E+02 -.61045010841E+02 -.81577546479E+02
 -.45075689544E+02 -.40960613939E+02 -.32017021293E+02 -.25916473300E+02 -.20210480731E+02
 -.14880762839E+02 -.11818551368E+02 -.94184355635E+01 -.75268885066E+01 -.53865663126E+01
 -.36223267461E+01 -.18377090117E+01 -.37084739131E+00 0.13127866627E+01 0.27644094869E+01
 0.36053381813E+01 0.37974215456E+01 0.35200033160E+01 0.30838264191E+01 0.25619946735E+01
 0.14146436255E+01 -.93194879324E-02 -.21314094369E+01 -.43631282151E+01 -.73845599607E+01
 -.11272387104E+02 -.17553077690E+02 -.24186433269E+02 -.31060019027E+02 -.40491360295E+02
 -.23532331785E+02 -.23229821631E+02 -.21805203195E+02 -.18322867107E+02 -.14880762839E+02
 -.12956579861E+02 -.11383935721E+02 -.99604465669E+01 -.84697128236E+01 -.71140963043E+01
 -.53308641280E+01 -.36223267461E+01 -.18812433941E+01 -.40123422386E+00 0.51965259884E+00
 0.13489673962E+01 0.18597873110E+01 0.23383383217E+01 0.21070424717E+01 0.14146436255E+01
 0.60696574148E+00 -.53604759823E+00 -.17457196876E+01 -.35219437508E+01 -.55992017667E+01
 -.81966555126E+01 -.11272387104E+02 -.15795458640E+02 -.20209990361E+02 -.22453881536E+02
 -.14745706825E+02 -.14592108398E+02 -.13250903859E+02 -.12348248127E+02 -.11818551368E+02
 -.11383935721E+02 -.10703636216E+02 -.10047582565E+02 -.92195656268E+01 -.80635530401E+01
 -.71140963043E+01 -.53865663126E+01 -.40716908312E+01 -.27944449484E+01 -.13544848030E+01
 -.45516011561E+00 0.91464520538E-01 0.11761803990E-01 0.47911441396E-01 -.93194879325E-02
 -.53604759823E+00 -.76606986441E+00 -.15678905114E+01 -.25617655207E+01 -.39095991322E+01
 -.55992017667E+01 -.73845599607E+01 -.91398059401E+01 -.11158560029E+02 -.13559458231E+02
 -.72564611599E+01 -.78708793432E+01 -.87849571268E+01 -.89773532965E+01 -.94184355635E+01
 -.99604465669E+01 -.10047582565E+02 -.10489981896E+02 -.10157289197E+02 -.92195656268E+01
 -.84697128236E+01 -.75268885066E+01 -.61029011748E+01 -.52444830761E+01 -.47580733206E+01
 -.41855274862E+01 -.34634873604E+01 -.25887831063E+01 -.21370958614E+01 -.21314094369E+01
 -.17457196876E+01 -.15678905114E+01 -.18980034924E+01 -.22685396741E+01 -.25617655207E+01
 -.35219437508E+01 -.43631282151E+01 -.53346045432E+01 -.63391183921E+01 -.66093276383E+01
 -.41855274862E+01 -.47580733206E+01 -.52444830761E+01 -.61029011748E+01 -.75268885066E+01
 -.84697128236E+01 -.92195656268E+01 -.10157289197E+02 -.10489981896E+02 -.10047582565E+02
 -.99604465669E+01 -.94184355635E+01 -.89773532965E+01 -.87849571268E+01 -.78708793432E+01
 -.72564611599E+01 -.66093276383E+01 -.63391183921E+01 -.53346045432E+01 -.43631282151E+01
 -.35219437508E+01 -.25617655207E+01 -.22685396741E+01 -.18980034924E+01 -.15678905114E+01
 -.17457196876E+01 -.21314094369E+01 -.21370958614E+01 -.25887831063E+01 -.34634873604E+01
 -.45516011561E+00 -.13544848030E+01 -.27944449484E+01 -.40716908312E+01 -.53865663126E+01
 -.71140963043E+01 -.80635530401E+01 -.92195656268E+01 -.10047582565E+02 -.10703636216E+02
 -.11383935721E+02 -.11818551368E+02 -.12348248127E+02 -.13250903859E+02 -.14592108398E+02
 -.14745706825E+02 -.13559458231E+02 -.11158560029E+02 -.91398059401E+01 -.73845599607E+01
 -.55992017667E+01 -.39095991322E+01 -.25617655207E+01 -.15678905114E+01 -.76606986441E+00
 -.53604759823E+00 -.93194879324E-02 0.47911441396E-01 0.11761803991E-01 0.91464520538E-01
 0.13489673962E+01 0.51965259884E+00 -.40123422386E+00 -.18812433941E+01 -.36223267461E+01
 -.53308641280E+01 -.71140963043E+01 -.84697128236E+01 -.99604465669E+01 -.11383935721E+02
 -.12956579861E+02 -.14880762839E+02 -.18322867107E+02 -.21805203195E+02 -.23229821631E+02
 -.23532331785E+02 -.22453881536E+02 -.20209990361E+02 -.15795458640E+02 -.11272387104E+02
 -.81966555126E+01 -.55992017667E+01 -.35219437508E+01 -.17457196876E+01 -.53604759823E+00
 0.60696574148E+00 0.14146436255E+01 0.21070424717E+01 0.23383383217E+01 0.18597873110E+01
 0.36053381813E+01 0.27644094869E+01 0.13127866627E+01 -.37084739131E+00 -.18377090117E+01
 -.36223267461E+01 -.53865663126E+01 -.75268885066E+01 -.94184355635E+01 -.11818551368E+02
 -.14880762839E+02 -.20210480731E+02 -.25916473300E+02 -.32017021293E+02 -.40960613939E+02
 -.45075689544E+02 -.40491360295E+02 -.31060019027E+02 -.24186433269E+02 -.17553077690E+02
 -.11272387104E+02 -.73845599607E+01 -.43631282151E+01 -.21314094369E+01 -.93194879325E-02
 0.14146436255E+01 0.25619946735E+01 0.30838264191E+01 0.35200033160E+01 0.37974215456E+01
 0.41061479523E+01 0.39294246153E+01 0.27013496990E+01 0.15154423919E+01 -.37084739131E+00
 -.18812433941E+01 -.40716908312E+01 -.61029011748E+01 -.89773532965E+01 -.12348248127E+02
 -.18322867107E+02 -.25916473300E+02 -.37440858181E+02 -.61868020720E+02 -.82070862474E+02
 -.87505860938E+02 -.81577546479E+02 -.61045010841E+02 -.36419910809E+02 -.24186433269E+02
 -.15795458640E+02 -.91398059401E+01 -.53346045432E+01 -.21370958614E+01 0.47911441396E-01
 0.21070424717E+01 0.30838264191E+01 0.39443114823E+01 0.39321104962E+01 0.41199190502E+01
 0.50069039661E+01 0.51615207873E+01 0.43164703445E+01 0.27013496990E+01 0.13127866627E+01
 -.40123422386E+00 -.27944449484E+01 -.52444830761E+01 -.87849571268E+01 -.13250903859E+02
 -.21805203195E+02 -.32017021293E+02 -.61868020720E+02 -.94389681481E+02 -.96779092116E+02
 -.92961535689E+02 -.96878211491E+02 -.93838346074E+02 -.61045010841E+02 -.31060019027E+02
 -.20209990361E+02 -.11158560029E+02 -.63391183921E+01 -.25887831063E+01 0.11761803991E-01
 0.23383383217E+01 0.35200033160E+01 0.39321104962E+01 0.43510176058E+01 0.46566339994E+01
 0.50035501763E+01 0.45830205679E+01 0.51615207873E+01 0.39294246153E+01 0.27644094869E+01
 0.51965259884E+00 -.13544848030E+01 -.47580733206E+01 -.78708793432E+01 -.14592108398E+02
 -.23229821631E+02 -.40960613939E+02 -.82070862474E+02 -.96779092116E+02 -.67471289448E+02
 -.46202377185E+02 -.67787395868E+02 -.96878211491E+02 -.81577546479E+02 -.40491360295E+02
 -.22453881536E+02 -.13559458231E+02 -.66093276383E+01 -.34634873604E+01 0.91464520538E-01
 0.18597873110E+01 0.37974215456E+01 0.41199190502E+01 0.46566339994E+01 0.37931991606E+01
 0.50872289764E+01 0.50035501763E+01 0.50069039661E+01 0.41061479523E+01 0.36053381813E+01
 0.13489673962E+01 -.45516011561E+00 -.41855274862E+01 -.72564611599E+01 -.14745706825E+02
 -.23532331785E+02 -.45075689544E+02 -.87505860938E+02 -.92961535689E+02 -.46202377185E+02
 -.14498649343E+02 -.46202377185E+02 -.92961535689E+02 -.87505860938E+02 -.45075689544E+02
 -.23532331785E+02 -.14745706825E+02 -.72564611599E+01 -.41855274862E+01 -.45516011561E+00
 0.13489673962E+01 0.36053381813E+01 0.41061479523E+01 0.50069039661E+01 0.50035501763E+01
 0.50035501763E+01 0.37931991606E+01 0.46566339994E+01 0.41199190502E+01 0.37974215456E+01
 0.18597873110E+01 0.91464520538E-01 -.34634873604E+01 -.66093276383E+01 -.13559458231E+02
 -.22453881536E+02 -.40491360295E+02 -.81577546479E+02 -.96878211491E+02 -.67787395868E+02
 -.46202377185E+02 -.67471289448E+02 -.96779092116E+02 -.82070862474E+02 -.40960613939E+02
 -.23229821631E+02 -.14592108398E+02 -.78708793432E+01 -.47580733206E+01 -.13544848030E+01
 0.51965259884E+00 0.27644094869E+01 0.39294246153E+01 0.51615207873E+01 0.45830205679E+01
 0.50069039661E+01 0.46566339994E+01 0.43510176058E+01 0.39321104962E+01 0.35200033160E+01
 0.23383383217E+01 0.11761803991E-01 -.25887831063E+01 -.63391183921E+01 -.11158560029E+02
 -.20209990361E+02 -.31060019027E+02 -.61045010841E+02 -.93838346074E+02 -.96878211491E+02
 -.92961535689E+02 -.96779092116E+02 -.94389681481E+02 -.61868020720E+02 -.32017021293E+02
 -.21805203195E+02 -.13250903859E+02 -.87849571268E+01 -.52444830761E+01 -.27944449484E+01
 -.40123422386E+00 0.13127866627E+01 0.27013496990E+01 0.43164703445E+01 0.51615207873E+01
 0.41061479523E+01 0.41199190502E+01 0.39321104962E+01 0.39443114823E+01 0.30838264191E+01
 0.21070424717E+01 0.47911441396E-01 -.21370958614E+01 -.53346045432E+01 -.91398059401E+01
 -.15795458640E+02 -.24186433269E+02 -.36419910809E+02 -.61045010841E+02 -.81577546479E+02
 -.87505860938E+02 -.82070862474E+02 -.61868020720E+02 -.37440858181E+02 -.25916473300E+02
 -.18322867107E+02 -.12348248127E+02 -.89773532965E+01 -.61029011748E+01 -.40716908312E+01
 -.18812433941E+01 -.37084739131E+00 0.15154423919E+01 0.27013496990E+01 0.39294246153E+01
 0.36053381813E+01 0.37974215456E+01 0.35200033160E+01 0.30838264191E+01 0.25619946735E+01
 0.14146436255E+01 -.93194879322E-02 -.21314094369E+01 -.43631282151E+01 -.73845599607E+01
 -.11272387104E+02 -.17553077690E+02 -.24186433269E+02 -.31060019027E+02 -.40491360295E+02
 -.45075689544E+02 -.40960613939E+02 -.32017021293E+02 -.25916473300E+02 -.20210480731E+02
 -.14880762839E+02 -.11818551368E+02 -.94184355635E+01 -.75268885066E+01 -.53865663126E+01
 -.36223267461E+01 -.18377090117E+01 -.37084739131E+00 0.13127866627E+01 0.27644094869E+01
 0.13489673962E+01 0.18597873110E+01 0.23383383217E+01 0.21070424717E+01 0.14146436255E+01
 0.60696574148E+00 -.53604759822E+00 -.17457196876E+01 -.35219437508E+01 -.55992017667E+01
 -.81966555126E+01 -.11272387104E+02 -.15795458640E+02 -.20209990361E+02 -.22453881536E+02
 -.23532331785E+02 -.23229821631E+02 -.21805203195E+02 -.18322867107E+02 -.14880762839E+02
 -.12956579861E+02 -.11383935721E+02 -.99604465669E+01 -.84697128236E+01 -.71140963043E+01
 -.53308641280E+01 -.36223267461E+01 -.18812433941E+01 -.40123422386E+00 0.51965259884E+00
 -.45516011561E+00 0.91464520538E-01 0.11761803991E-01 0.47911441396E-01 -.93194879322E-02
 -.53604759822E+00 -.76606986441E+00 -.15678905114E+01 -.25617655207E+01 -.39095991322E+01
 -.55992017667E+01 -.73845599607E+01 -.91398059401E+01 -.11158560029E+02 -.13559458231E+02
 -.14745706825E+02 -.14592108398E+02 -.13250903859E+02 -.12348248127E+02 -.11818551368E+02
 -.11383935721E+02 -.10703636216E+02 -.10047582565E+02 -.92195656268E+01 -.80635530401E+01
 -.71140963043E+01 -.53865663126E+01 -.40716908312E+01 -.27944449484E+01 -.13544848030E+01
 -.41855274862E+01 -.34634873604E+01 -.25887831063E+01 -.21370958614E+01 -.21314094369E+01
 -.17457196876E+01 -.15678905114E+01 -.18980034924E+01 -.22685396741E+01 -.25617655207E+01
 -.35219437508E+01 -.43631282151E+01 -.53346045432E+01 -.63391183921E+01 -.66093276383E+01
 -.72564611599E+01 -.78708793432E+01 -.87849571268E+01 -.89773532965E+01 -.94184355635E+01
 -.99604465669E+01 -.10047582565E+02 -.10489981896E+02 -.10157289197E+02 -.92195656268E+01
 -.84697128236E+01 -.75268885066E+01 -.61029011748E+01 -.52444830761E+01 -.47580733206E+01
 -.72564611599E+01 -.66093276383E+01 -.63391183921E+01 -.53346045432E+01 -.43631282151E+01
 -.35219437508E+01 -.25617655207E+01 -.22685396741E+01 -.18980034924E+01 -.15678905114E+01
 -.17457196876E+01 -.21314094369E+01 -.21370958614E+01 -.25887831063E+01 -.34634873604E+01
 -.41855274862E+01 -.47580733206E+01 -.52444830761E+01 -.61029011748E+01 -.75268885066E+01
 -.84697128236E+01 -.92195656268E+01 -.10157289197E+02 -.10489981896E+02 -.10047582565E+02
 -.99604465669E+01 -.94184355635E+01 -.89773532965E+01 -.87849571268E+01 -.78708793432E+01