Na_PW                                   
   1.00000000000000     
     4.049500    0.000000    0.000000
     0.000000    4.049500    0.000000
     0.000000    0.000000    4.049500
   Al
     4
Direct
  0.000000  0.000000  0.000000
  0.000000  0.500000  0.500000
  0.500000  0.000000  0.500000
  0.500000  0.500000  0.000000
 
   30   30   30
 -.68281803940E+00 0.84268767405E-01 0.21928671011E+01 0.51250858976E+01 0.82085683703E+01
 0.10803209378E+02 0.12424374018E+02 0.12874506445E+02 0.12355821130E+02 0.11320720939E+02
 0.10177165999E+02 0.91735751565E+01 0.83910410820E+01 0.78348600110E+01 0.75011001074E+01
 0.73897434573E+01 0.75011001074E+01 0.78348600110E+01 0.83910410820E+01 0.91735751565E+01
 0.10177165999E+02 0.11320720939E+02 0.12355821130E+02 0.12874506445E+02 0.12424374018E+02
 0.10803209378E+02 0.82085683703E+01 0.51250858976E+01 0.21928671011E+01 0.84268767405E-01
 0.84268767405E-01 0.82755351478E+00 0.28639268885E+01 0.56818187574E+01 0.86280433736E+01
 0.11084398805E+02 0.12585872347E+02 0.12953929301E+02 0.12400202085E+02 0.11363837645E+02
 0.10235915951E+02 0.92509098328E+01 0.84833803527E+01 0.79376717958E+01 0.76102743091E+01
 0.75011001074E+01 0.76102743091E+01 0.79376717958E+01 0.84833803527E+01 0.92509098328E+01
 0.10235915951E+02 0.11363837645E+02 0.12400202085E+02 0.12953929301E+02 0.12585872347E+02
 0.11084398805E+02 0.86280433736E+01 0.56818187574E+01 0.28639268885E+01 0.82755351478E+00
 0.21928671011E+01 0.28639268885E+01 0.46887841132E+01 0.71838575734E+01 0.97495850846E+01
 0.11825502386E+02 0.13002670228E+02 0.13156885357E+02 0.12520751613E+02 0.11491830347E+02
 0.10414527780E+02 0.94851999929E+01 0.87616686917E+01 0.82465152892E+01 0.79376717958E+01
 0.78348600110E+01 0.79376717958E+01 0.82465152892E+01 0.87616686917E+01 0.94851999929E+01
 0.10414527780E+02 0.11491830347E+02 0.12520751613E+02 0.13156885357E+02 0.13002670228E+02
 0.11825502386E+02 0.97495850846E+01 0.71838575734E+01 0.46887841132E+01 0.28639268885E+01
 0.51250858976E+01 0.56818187574E+01 0.71838575734E+01 0.92054126906E+01 0.11225527366E+02
 0.12765675528E+02 0.13504321701E+02 0.13395892500E+02 0.12683564358E+02 0.11697211123E+02
 0.10714082365E+02 0.98780963004E+01 0.92266614208E+01 0.87616686917E+01 0.84833803527E+01
 0.83910410820E+01 0.84833803527E+01 0.87616686917E+01 0.92266614208E+01 0.98780963004E+01
 0.10714082365E+02 0.11697211123E+02 0.12683564358E+02 0.13395892500E+02 0.13504321701E+02
 0.12765675528E+02 0.11225527366E+02 0.92054126906E+01 0.71838575734E+01 0.56818187574E+01
 0.82085683703E+01 0.86280433736E+01 0.97495850846E+01 0.11225527366E+02 0.12631090629E+02
 0.13591641392E+02 0.13895505062E+02 0.13575859895E+02 0.12847793037E+02 0.11966167601E+02
 0.11129480433E+02 0.10427066444E+02 0.98780963004E+01 0.94851999929E+01 0.92509098328E+01
 0.91735751565E+01 0.92509098328E+01 0.94851999929E+01 0.98780963004E+01 0.10427066444E+02
 0.11129480433E+02 0.11966167601E+02 0.12847793037E+02 0.13575859895E+02 0.13895505062E+02
 0.13591641392E+02 0.12631090629E+02 0.11225527366E+02 0.97495850846E+01 0.86280433736E+01
 0.10803209378E+02 0.11084398805E+02 0.11825502386E+02 0.12765675528E+02 0.13591641392E+02
 0.14050280462E+02 0.14040596972E+02 0.13633151271E+02 0.12989193187E+02 0.12290576570E+02
 0.11656734671E+02 0.11129480433E+02 0.10714082365E+02 0.10414527780E+02 0.10235915951E+02
 0.10177165999E+02 0.10235915951E+02 0.10414527780E+02 0.10714082365E+02 0.11129480433E+02
 0.11656734671E+02 0.12290576570E+02 0.12989193187E+02 0.13633151271E+02 0.14040596972E+02
 0.14050280462E+02 0.13591641392E+02 0.12765675528E+02 0.11825502386E+02 0.11084398805E+02
 0.12424374018E+02 0.12585872347E+02 0.13002670228E+02 0.13504321701E+02 0.13895505062E+02
 0.14040596972E+02 0.13909912996E+02 0.13562572977E+02 0.13115637160E+02 0.12675012404E+02
 0.12290576570E+02 0.11966167601E+02 0.11697211123E+02 0.11491830347E+02 0.11363837645E+02
 0.11320720939E+02 0.11363837645E+02 0.11491830347E+02 0.11697211123E+02 0.11966167601E+02
 0.12290576570E+02 0.12675012404E+02 0.13115637160E+02 0.13562572977E+02 0.13909912996E+02
 0.14040596972E+02 0.13895505062E+02 0.13504321701E+02 0.13002670228E+02 0.12585872347E+02
 0.12874506445E+02 0.12953929301E+02 0.13156885357E+02 0.13395892500E+02 0.13575859895E+02
 0.13633151271E+02 0.13562572977E+02 0.13414541469E+02 0.13254180051E+02 0.13115637160E+02
 0.12989193187E+02 0.12847793037E+02 0.12683564358E+02 0.12520751613E+02 0.12400202085E+02
 0.12355821130E+02 0.12400202085E+02 0.12520751613E+02 0.12683564358E+02 0.12847793037E+02
 0.12989193187E+02 0.13115637160E+02 0.13254180051E+02 0.13414541469E+02 0.13562572977E+02
 0.13633151271E+02 0.13575859895E+02 0.13395892500E+02 0.13156885357E+02 0.12953929301E+02
 0.12355821130E+02 0.12400202085E+02 0.12520751613E+02 0.12683564358E+02 0.12847793037E+02
 0.12989193187E+02 0.13115637160E+02 0.13254180051E+02 0.13414541469E+02 0.13562572977E+02
 0.13633151271E+02 0.13575859895E+02 0.13395892500E+02 0.13156885357E+02 0.12953929301E+02
 0.12874506445E+02 0.12953929301E+02 0.13156885357E+02 0.13395892500E+02 0.13575859895E+02
 0.13633151271E+02 0.13562572977E+02 0.13414541469E+02 0.13254180051E+02 0.13115637160E+02
 0.12989193187E+02 0.12847793037E+02 0.12683564358E+02 0.12520751613E+02 0.12400202085E+02
 0.11320720939E+02 0.11363837645E+02 0.11491830347E+02 0.11697211123E+02 0.11966167601E+02
 0.12290576570E+02 0.12675012404E+02 0.13115637160E+02 0.13562572977E+02 0.13909912996E+02
 0.14040596972E+02 0.13895505062E+02 0.13504321701E+02 0.13002670228E+02 0.12585872347E+02
 0.12424374018E+02 0.12585872347E+02 0.13002670228E+02 0.13504321701E+02 0.13895505062E+02
 0.14040596972E+02 0.13909912996E+02 0.13562572977E+02 0.13115637160E+02 0.12675012404E+02
 0.12290576570E+02 0.11966167601E+02 0.11697211123E+02 0.11491830347E+02 0.11363837645E+02
 0.10177165999E+02 0.10235915951E+02 0.10414527780E+02 0.10714082365E+02 0.11129480433E+02
 0.11656734671E+02 0.12290576570E+02 0.12989193187E+02 0.13633151271E+02 0.14040596972E+02
 0.14050280462E+02 0.13591641392E+02 0.12765675528E+02 0.11825502386E+02 0.11084398805E+02
 0.10803209378E+02 0.11084398805E+02 0.11825502386E+02 0.12765675528E+02 0.13591641392E+02
 0.14050280462E+02 0.14040596972E+02 0.13633151271E+02 0.12989193187E+02 0.12290576570E+02
 0.11656734671E+02 0.11129480433E+02 0.10714082365E+02 0.10414527780E+02 0.10235915951E+02
 0.91735751565E+01 0.92509098328E+01 0.94851999929E+01 0.98780963004E+01 0.10427066444E+02
 0.11129480433E+02 0.11966167601E+02 0.12847793037E+02 0.13575859895E+02 0.13895505062E+02
 0.13591641392E+02 0.12631090629E+02 0.11225527366E+02 0.97495850846E+01 0.86280433736E+01
 0.82085683703E+01 0.86280433736E+01 0.97495850846E+01 0.11225527366E+02 0.12631090629E+02
 0.13591641392E+02 0.13895505062E+02 0.13575859895E+02 0.12847793037E+02 0.11966167601E+02
 0.11129480433E+02 0.10427066444E+02 0.98780963004E+01 0.94851999929E+01 0.92509098328E+01
 0.83910410820E+01 0.84833803527E+01 0.87616686917E+01 0.92266614208E+01 0.98780963004E+01
 0.10714082365E+02 0.11697211123E+02 0.12683564358E+02 0.13395892500E+02 0.13504321701E+02
 0.12765675528E+02 0.11225527366E+02 0.92054126906E+01 0.71838575734E+01 0.56818187574E+01
 0.51250858976E+01 0.56818187574E+01 0.71838575734E+01 0.92054126906E+01 0.11225527366E+02
 0.12765675528E+02 0.13504321701E+02 0.13395892500E+02 0.12683564358E+02 0.11697211123E+02
 0.10714082365E+02 0.98780963004E+01 0.92266614208E+01 0.87616686917E+01 0.84833803527E+01
 0.78348600110E+01 0.79376717958E+01 0.82465152892E+01 0.87616686917E+01 0.94851999929E+01
 0.10414527780E+02 0.11491830347E+02 0.12520751613E+02 0.13156885357E+02 0.13002670228E+02
 0.11825502386E+02 0.97495850846E+01 0.71838575734E+01 0.46887841132E+01 0.28639268885E+01
 0.21928671011E+01 0.28639268885E+01 0.46887841132E+01 0.71838575734E+01 0.97495850846E+01
 0.11825502386E+02 0.13002670228E+02 0.13156885357E+02 0.12520751613E+02 0.11491830347E+02
 0.10414527780E+02 0.94851999929E+01 0.87616686917E+01 0.82465152892E+01 0.79376717958E+01
 0.75011001074E+01 0.76102743091E+01 0.79376717958E+01 0.84833803527E+01 0.92509098328E+01
 0.10235915951E+02 0.11363837645E+02 0.12400202085E+02 0.12953929301E+02 0.12585872347E+02
 0.11084398805E+02 0.86280433736E+01 0.56818187574E+01 0.28639268885E+01 0.82755351478E+00
 0.84268767405E-01 0.82755351478E+00 0.28639268885E+01 0.56818187574E+01 0.86280433736E+01
 0.11084398805E+02 0.12585872347E+02 0.12953929301E+02 0.12400202085E+02 0.11363837645E+02
 0.10235915951E+02 0.92509098328E+01 0.84833803527E+01 0.79376717958E+01 0.76102743091E+01
 0.73897434573E+01 0.75011001074E+01 0.78348600110E+01 0.83910410820E+01 0.91735751565E+01
 0.10177165999E+02 0.11320720939E+02 0.12355821130E+02 0.12874506445E+02 0.12424374018E+02
 0.10803209378E+02 0.82085683703E+01 0.51250858976E+01 0.21928671011E+01 0.84268767405E-01
 -.68281803940E+00 0.84268767405E-01 0.21928671011E+01 0.51250858976E+01 0.82085683703E+01
 0.10803209378E+02 0.12424374018E+02 0.12874506445E+02 0.12355821130E+02 0.11320720939E+02
 0.10177165999E+02 0.91735751565E+01 0.83910410820E+01 0.78348600110E+01 0.75011001074E+01
 0.75011001074E+01 0.76102743091E+01 0.79376717958E+01 0.84833803527E+01 0.92509098328E+01
 0.10235915951E+02 0.11363837645E+02 0.12400202085E+02 0.12953929301E+02 0.12585872347E+02
 0.11084398805E+02 0.86280433736E+01 0.56818187574E+01 0.28639268885E+01 0.82755351478E+00
 0.84268767405E-01 0.82755351478E+00 0.28639268885E+01 0.56818187574E+01 0.86280433736E+01
 0.11084398805E+02 0.12585872347E+02 0.12953929301E+02 0.12400202085E+02 0.11363837645E+02
 0.10235915951E+02 0.92509098328E+01 0.84833803527E+01 0.79376717958E+01 0.76102743091E+01
 0.78348600110E+01 0.79376717958E+01 0.82465152892E+01 0.87616686917E+01 0.94851999929E+01
 0.10414527780E+02 0.11491830347E+02 0.12520751613E+02 0.13156885357E+02 0.13002670228E+02
 0.11825502386E+02 0.97495850846E+01 0.71838575734E+01 0.46887841132E+01 0.28639268885E+01
 0.21928671011E+01 0.28639268885E+01 0.46887841132E+01 0.71838575734E+01 0.97495850846E+01
 0.11825502386E+02 0.13002670228E+02 0.13156885357E+02 0.12520751613E+02 0.11491830347E+02
 0.10414527780E+02 0.94851999929E+01 0.87616686917E+01 0.82465152892E+01 0.79376717958E+01
 0.83910410820E+01 0.84833803527E+01 0.87616686917E+01 0.92266614208E+01 0.98780963004E+01
 0.10714082365E+02 0.11697211123E+02 0.12683564358E+02 0.13395892500E+02 0.13504321701E+02
 0.12765675528E+02 0.11225527366E+02 0.92054126906E+01 0.71838575734E+01 0.56818187574E+01
 0.51250858976E+01 0.56818187574E+01 0.71838575734E+01 0.92054126906E+01 0.11225527366E+02
 0.12765675528E+02 0.13504321701E+02 0.13395892500E+02 0.12683564358E+02 0.11697211123E+02
 0.10714082365E+02 0.98780963004E+01 0.92266614208E+01 0.87616686917E+01 0.84833803527E+01
 0.91735751565E+01 0.92509098328E+01 0.94851999929E+01 0.98780963004E+01 0.10427066444E+02
 0.11129480433E+02 0.11966167601E+02 0.12847793037E+02 0.13575859895E+02 0.13895505062E+02
 0.13591641392E+02 0.12631090629E+02 0.11225527366E+02 0.97495850846E+01 0.86280433736E+01
 0.82085683703E+01 0.86280433736E+01 0.97495850846E+01 0.11225527366E+02 0.12631090629E+02
 0.13591641392E+02 0.13895505062E+02 0.13575859895E+02 0.12847793037E+02 0.11966167601E+02
 0.11129480433E+02 0.10427066444E+02 0.98780963004E+01 0.94851999929E+01 0.92509098328E+01
 0.10177165999E+02 0.10235915951E+02 0.10414527780E+02 0.10714082365E+02 0.11129480433E+02
 0.11656734671E+02 0.12290576570E+02 0.12989193187E+02 0.13633151271E+02 0.14040596972E+02
 0.14050280462E+02 0.13591641392E+02 0.12765675528E+02 0.11825502386E+02 0.11084398805E+02
 0.10803209378E+02 0.11084398805E+02 0.11825502386E+02 0.12765675528E+02 0.13591641392E+02
 0.14050280462E+02 0.14040596972E+02 0.13633151271E+02 0.12989193187E+02 0.12290576570E+02
 0.11656734671E+02 0.11129480433E+02 0.10714082365E+02 0.10414527780E+02 0.10235915951E+02
 0.11320720939E+02 0.11363837645E+02 0.11491830347E+02 0.11697211123E+02 0.11966167601E+02
 0.12290576570E+02 0.12675012404E+02 0.13115637160E+02 0.13562572977E+02 0.13909912996E+02
 0.14040596972E+02 0.13895505062E+02 0.13504321701E+02 0.13002670228E+02 0.12585872347E+02
 0.12424374018E+02 0.12585872347E+02 0.13002670228E+02 0.13504321701E+02 0.13895505062E+02
 0.14040596972E+02 0.13909912996E+02 0.13562572977E+02 0.13115637160E+02 0.12675012404E+02
 0.12290576570E+02 0.11966167601E+02 0.11697211123E+02 0.11491830347E+02 0.11363837645E+02
 0.12355821130E+02 0.12400202085E+02 0.12520751613E+02 0.12683564358E+02 0.12847793037E+02
 0.12989193187E+02 0.13115637160E+02 0.13254180051E+02 0.13414541469E+02 0.13562572977E+02
 0.13633151271E+02 0.13575859895E+02 0.13395892500E+02 0.13156885357E+02 0.12953929301E+02
 0.12874506445E+02 0.12953929301E+02 0.13156885357E+02 0.13395892500E+02 0.13575859895E+02
 0.13633151271E+02 0.13562572977E+02 0.13414541469E+02 0.13254180051E+02 0.13115637160E+02
 0.12989193187E+02 0.12847793037E+02 0.12683564358E+02 0.12520751613E+02 0.12400202085E+02
 0.12874506445E+02 0.12953929301E+02 0.13156885357E+02 0.13395892500E+02 0.13575859895E+02
 0.13633151271E+02 0.13562572977E+02 0.13414541469E+02 0.13254180051E+02 0.13115637160E+02
 0.12989193187E+02 0.12847793037E+02 0.12683564358E+02 0.12520751613E+02 0.12400202085E+02
 0.12355821130E+02 0.12400202085E+02 0.12520751613E+02 0.12683564358E+02 0.12847793037E+02
 0.12989193187E+02 0.13115637160E+02 0.13254180051E+02 0.13414541469E+02 0.13562572977E+02
 0.13633151271E+02 0.13575859895E+02 0.13395892500E+02 0.13156885357E+02 0.12953929301E+02
 0.12424374018E+02 0.12585872347E+02 0.13002670228E+02 0.13504321701E+02 0.13895505062E+02
 0.14040596972E+02 0.13909912996E+02 0.13562572977E+02 0.13115637160E+02 0.12675012404E+02
 0.12290576570E+02 0.11966167601E+02 0.11697211123E+02 0.11491830347E+02 0.11363837645E+02
 0.11320720939E+02 0.11363837645E+02 0.11491830347E+02 0.11697211123E+02 0.11966167601E+02
 0.12290576570E+02 0.12675012404E+02 0.13115637160E+02 0.13562572977E+02 0.13909912996E+02
 0.14040596972E+02 0.13895505062E+02 0.13504321701E+02 0.13002670228E+02 0.12585872347E+02
 0.10803209378E+02 0.11084398805E+02 0.11825502386E+02 0.12765675528E+02 0.13591641392E+02
 0.14050280462E+02 0.14040596972E+02 0.13633151271E+02 0.12989193187E+02 0.12290576570E+02
 0.11656734671E+02 0.11129480433E+02 0.10714082365E+02 0.10414527780E+02 0.10235915951E+02
 0.10177165999E+02 0.10235915951E+02 0.10414527780E+02 0.10714082365E+02 0.11129480433E+02
 0.11656734671E+02 0.12290576570E+02 0.12989193187E+02 0.13633151271E+02 0.14040596972E+02
 0.14050280462E+02 0.13591641392E+02 0.12765675528E+02 0.11825502386E+02 0.11084398805E+02
 0.82085683703E+01 0.86280433736E+01 0.97495850846E+01 0.11225527366E+02 0.12631090629E+02
 0.13591641392E+02 0.13895505062E+02 0.13575859895E+02 0.12847793037E+02 0.11966167601E+02
 0.11129480433E+02 0.10427066444E+02 0.98780963004E+01 0.94851999929E+01 0.92509098328E+01
 0.91735751565E+01 0.92509098328E+01 0.94851999929E+01 0.98780963004E+01 0.10427066444E+02
 0.11129480433E+02 0.11966167601E+02 0.12847793037E+02 0.13575859895E+02 0.13895505062E+02
 0.13591641392E+02 0.12631090629E+02 0.11225527366E+02 0.97495850846E+01 0.86280433736E+01
 0.51250858976E+01 0.56818187574E+01 0.71838575734E+01 0.92054126906E+01 0.11225527366E+02
 0.12765675528E+02 0.13504321701E+02 0.13395892500E+02 0.12683564358E+02 0.11697211123E+02
 0.10714082365E+02 0.98780963004E+01 0.92266614208E+01 0.87616686917E+01 0.84833803527E+01
 0.83910410820E+01 0.84833803527E+01 0.87616686917E+01 0.92266614208E+01 0.98780963004E+01
 0.10714082365E+02 0.11697211123E+02 0.12683564358E+02 0.13395892500E+02 0.13504321701E+02
 0.12765675528E+02 0.11225527366E+02 0.92054126906E+01 0.71838575734E+01 0.56818187574E+01
 0.21928671011E+01 0.28639268885E+01 0.46887841132E+01 0.71838575734E+01 0.97495850846E+01
 0.11825502386E+02 0.13002670228E+02 0.13156885357E+02 0.12520751613E+02 0.11491830347E+02
 0.10414527780E+02 0.94851999929E+01 0.87616686917E+01 0.82465152892E+01 0.79376717958E+01
 0.78348600110E+01 0.79376717958E+01 0.82465152892E+01 0.87616686917E+01 0.94851999929E+01
 0.10414527780E+02 0.11491830347E+02 0.12520751613E+02 0.13156885357E+02 0.13002670228E+02
 0.11825502386E+02 0.97495850846E+01 0.71838575734E+01 0.46887841132E+01 0.28639268885E+01
 0.84268767405E-01 0.82755351478E+00 0.28639268885E+01 0.56818187574E+01 0.86280433736E+01
 0.11084398805E+02 0.12585872347E+02 0.12953929301E+02 0.12400202085E+02 0.11363837645E+02
 0.10235915951E+02 0.92509098328E+01 0.84833803527E+01 0.79376717958E+01 0.76102743091E+01
 0.75011001074E+01 0.76102743091E+01 0.79376717958E+01 0.84833803527E+01 0.92509098328E+01
 0.10235915951E+02 0.11363837645E+02 0.12400202085E+02 0.12953929301E+02 0.12585872347E+02
 0.11084398805E+02 0.86280433736E+01 0.56818187574E+01 0.28639268885E+01 0.82755351478E+00
 0.84268767405E-01 0.82755351478E+00 0.28639268885E+01 0.56818187574E+01 0.86280433736E+01
 0.11084398805E+02 0.12585872347E+02 0.12953929301E+02 0.12400202085E+02 0.11363837645E+02
 0.10235915951E+02 0.92509098328E+01 0.84833803527E+01 0.79376717958E+01 0.76102743091E+01
 0.75011001074E+01 0.76102743091E+01 0.79376717958E+01 0.84833803527E+01 0.92509098328E+01
 0.10235915951E+02 0.11363837645E+02 0.12400202085E+02 0.12953929301E+02 0.12585872347E+02
 0.11084398805E+02 0.86280433736E+01 0.56818187574E+01 0.28639268885E+01 0.82755351478E+00
 0.82755351478E+00 0.15459455375E+01 0.35088179663E+01 0.62137021973E+01 0.90264422240E+01
 0.11349118156E+02 0.12735556230E+02 0.13025834411E+02 0.12440031918E+02 0.11403817056E+02
 0.10292063684E+02 0.93257869742E+01 0.85733486560E+01 0.80382090735E+01 0.77172432907E+01
 0.76102743091E+01 0.77172432907E+01 0.80382090735E+01 0.85733486560E+01 0.93257869742E+01
 0.10292063684E+02 0.11403817056E+02 0.12440031918E+02 0.13025834411E+02 0.12735556230E+02
 0.11349118156E+02 0.90264422240E+01 0.62137021973E+01 0.35088179663E+01 0.15459455375E+01
 0.28639268885E+01 0.35088179663E+01 0.52599836961E+01 0.76476948382E+01 0.10090568658E+02
 0.12045269105E+02 0.13120265409E+02 0.13208591990E+02 0.12548176611E+02 0.11523089377E+02
 0.10463238297E+02 0.95529402680E+01 0.88447174574E+01 0.83404128764E+01 0.80382090735E+01
 0.79376717958E+01 0.80382090735E+01 0.83404128764E+01 0.88447174574E+01 0.95529402680E+01
 0.10463238297E+02 0.11523089377E+02 0.12548176611E+02 0.13208591990E+02 0.13120265409E+02
 0.12045269105E+02 0.10090568658E+02 0.76476948382E+01 0.52599836961E+01 0.35088179663E+01
 0.56818187574E+01 0.62137021973E+01 0.76476948382E+01 0.95733630879E+01 0.11486243643E+02
 0.12922961489E+02 0.13578259512E+02 0.13420954220E+02 0.12694162254E+02 0.11716102533E+02
 0.10751532629E+02 0.99345572507E+01 0.92985331676E+01 0.88447174574E+01 0.85733486560E+01
 0.84833803527E+01 0.85733486560E+01 0.88447174574E+01 0.92985331676E+01 0.99345572507E+01
 0.10751532629E+02 0.11716102533E+02 0.12694162254E+02 0.13420954220E+02 0.13578259512E+02
 0.12922961489E+02 0.11486243643E+02 0.95733630879E+01 0.76476948382E+01 0.62137021973E+01
 0.86280433736E+01 0.90264422240E+01 0.10090568658E+02 0.11486243643E+02 0.12803492507E+02
 0.13682230398E+02 0.13925310563E+02 0.13574983698E+02 0.12841548828E+02 0.11971493703E+02
 0.11153056412E+02 0.10468583112E+02 0.99345572507E+01 0.95529402680E+01 0.93257869742E+01
 0.92509098328E+01 0.93257869742E+01 0.95529402680E+01 0.99345572507E+01 0.10468583112E+02
 0.11153056412E+02 0.11971493703E+02 0.12841548828E+02 0.13574983698E+02 0.13925310563E+02
 0.13682230398E+02 0.12803492507E+02 0.11486243643E+02 0.10090568658E+02 0.90264422240E+01
 0.11084398805E+02 0.11349118156E+02 0.12045269105E+02 0.12922961489E+02 0.13682230398E+02
 0.14083287782E+02 0.14035977013E+02 0.13612165058E+02 0.12969480932E+02 0.12282883210E+02
 0.11664778368E+02 0.11153056412E+02 0.10751532629E+02 0.10463238297E+02 0.10292063684E+02
 0.10235915951E+02 0.10292063684E+02 0.10463238297E+02 0.10751532629E+02 0.11153056412E+02
 0.11664778368E+02 0.12282883210E+02 0.12969480932E+02 0.13612165058E+02 0.14035977013E+02
 0.14083287782E+02 0.13682230398E+02 0.12922961489E+02 0.12045269105E+02 0.11349118156E+02
 0.12585872347E+02 0.12735556230E+02 0.13120265409E+02 0.13578259512E+02 0.13925310563E+02
 0.14035977013E+02 0.13884470706E+02 0.13530147228E+02 0.13086836552E+02 0.12655559694E+02
 0.12282883210E+02 0.11971493703E+02 0.11716102533E+02 0.11523089377E+02 0.11403817056E+02
 0.11363837645E+02 0.11403817056E+02 0.11523089377E+02 0.11716102533E+02 0.11971493703E+02
 0.12282883210E+02 0.12655559694E+02 0.13086836552E+02 0.13530147228E+02 0.13884470706E+02
 0.14035977013E+02 0.13925310563E+02 0.13578259512E+02 0.13120265409E+02 0.12735556230E+02
 0.12953929301E+02 0.13025834411E+02 0.13208591990E+02 0.13420954220E+02 0.13574983698E+02
 0.13612165058E+02 0.13530147228E+02 0.13378578886E+02 0.13220007791E+02 0.13086836552E+02
 0.12969480932E+02 0.12841548828E+02 0.12694162254E+02 0.12548176611E+02 0.12440031918E+02
 0.12400202085E+02 0.12440031918E+02 0.12548176611E+02 0.12694162254E+02 0.12841548828E+02
 0.12969480932E+02 0.13086836552E+02 0.13220007791E+02 0.13378578886E+02 0.13530147228E+02
 0.13612165058E+02 0.13574983698E+02 0.13420954220E+02 0.13208591990E+02 0.13025834411E+02
 0.12400202085E+02 0.12440031918E+02 0.12548176611E+02 0.12694162254E+02 0.12841548828E+02
 0.12969480932E+02 0.13086836552E+02 0.13220007791E+02 0.13378578886E+02 0.13530147228E+02
 0.13612165058E+02 0.13574983698E+02 0.13420954220E+02 0.13208591990E+02 0.13025834411E+02
 0.12953929301E+02 0.13025834411E+02 0.13208591990E+02 0.13420954220E+02 0.13574983698E+02
 0.13612165058E+02 0.13530147228E+02 0.13378578886E+02 0.13220007791E+02 0.13086836552E+02
 0.12969480932E+02 0.12841548828E+02 0.12694162254E+02 0.12548176611E+02 0.12440031918E+02
 0.11363837645E+02 0.11403817056E+02 0.11523089377E+02 0.11716102533E+02 0.11971493703E+02
 0.12282883210E+02 0.12655559694E+02 0.13086836552E+02 0.13530147228E+02 0.13884470706E+02
 0.14035977013E+02 0.13925310563E+02 0.13578259512E+02 0.13120265409E+02 0.12735556230E+02
 0.12585872347E+02 0.12735556230E+02 0.13120265409E+02 0.13578259512E+02 0.13925310563E+02
 0.14035977013E+02 0.13884470706E+02 0.13530147228E+02 0.13086836552E+02 0.12655559694E+02
 0.12282883210E+02 0.11971493703E+02 0.11716102533E+02 0.11523089377E+02 0.11403817056E+02
 0.10235915951E+02 0.10292063684E+02 0.10463238297E+02 0.10751532629E+02 0.11153056412E+02
 0.11664778368E+02 0.12282883210E+02 0.12969480932E+02 0.13612165058E+02 0.14035977013E+02
 0.14083287782E+02 0.13682230398E+02 0.12922961489E+02 0.12045269105E+02 0.11349118156E+02
 0.11084398805E+02 0.11349118156E+02 0.12045269105E+02 0.12922961489E+02 0.13682230398E+02
 0.14083287782E+02 0.14035977013E+02 0.13612165058E+02 0.12969480932E+02 0.12282883210E+02
 0.11664778368E+02 0.11153056412E+02 0.10751532629E+02 0.10463238297E+02 0.10292063684E+02
 0.92509098328E+01 0.93257869742E+01 0.95529402680E+01 0.99345572507E+01 0.10468583112E+02
 0.11153056412E+02 0.11971493703E+02 0.12841548828E+02 0.13574983698E+02 0.13925310563E+02
 0.13682230398E+02 0.12803492507E+02 0.11486243643E+02 0.10090568658E+02 0.90264422240E+01
 0.86280433736E+01 0.90264422240E+01 0.10090568658E+02 0.11486243643E+02 0.12803492507E+02
 0.13682230398E+02 0.13925310563E+02 0.13574983698E+02 0.12841548828E+02 0.11971493703E+02
 0.11153056412E+02 0.10468583112E+02 0.99345572507E+01 0.95529402680E+01 0.93257869742E+01
 0.84833803527E+01 0.85733486560E+01 0.88447174574E+01 0.92985331676E+01 0.99345572507E+01
 0.10751532629E+02 0.11716102533E+02 0.12694162254E+02 0.13420954220E+02 0.13578259512E+02
 0.12922961489E+02 0.11486243643E+02 0.95733630879E+01 0.76476948382E+01 0.62137021973E+01
 0.56818187574E+01 0.62137021973E+01 0.76476948382E+01 0.95733630879E+01 0.11486243643E+02
 0.12922961489E+02 0.13578259512E+02 0.13420954220E+02 0.12694162254E+02 0.11716102533E+02
 0.10751532629E+02 0.99345572507E+01 0.92985331676E+01 0.88447174574E+01 0.85733486560E+01
 0.79376717958E+01 0.80382090735E+01 0.83404128764E+01 0.88447174574E+01 0.95529402680E+01
 0.10463238297E+02 0.11523089377E+02 0.12548176611E+02 0.13208591990E+02 0.13120265409E+02
 0.12045269105E+02 0.10090568658E+02 0.76476948382E+01 0.52599836961E+01 0.35088179663E+01
 0.28639268885E+01 0.35088179663E+01 0.52599836961E+01 0.76476948382E+01 0.10090568658E+02
 0.12045269105E+02 0.13120265409E+02 0.13208591990E+02 0.12548176611E+02 0.11523089377E+02
 0.10463238297E+02 0.95529402680E+01 0.88447174574E+01 0.83404128764E+01 0.80382090735E+01
 0.76102743091E+01 0.77172432907E+01 0.80382090735E+01 0.85733486560E+01 0.93257869742E+01
 0.10292063684E+02 0.11403817056E+02 0.12440031918E+02 0.13025834411E+02 0.12735556230E+02
 0.11349118156E+02 0.90264422240E+01 0.62137021973E+01 0.35088179663E+01 0.15459455375E+01
 0.82755351478E+00 0.15459455375E+01 0.35088179663E+01 0.62137021973E+01 0.90264422240E+01
 0.11349118156E+02 0.12735556230E+02 0.13025834411E+02 0.12440031918E+02 0.11403817056E+02
 0.10292063684E+02 0.93257869742E+01 0.85733486560E+01 0.80382090735E+01 0.77172432907E+01
 0.75011001074E+01 0.76102743091E+01 0.79376717958E+01 0.84833803527E+01 0.92509098328E+01
 0.10235915951E+02 0.11363837645E+02 0.12400202085E+02 0.12953929301E+02 0.12585872347E+02
 0.11084398805E+02 0.86280433736E+01 0.56818187574E+01 0.28639268885E+01 0.82755351478E+00
 0.84268767405E-01 0.82755351478E+00 0.28639268885E+01 0.56818187574E+01 0.86280433736E+01
 0.11084398805E+02 0.12585872347E+02 0.12953929301E+02 0.12400202085E+02 0.11363837645E+02
 0.10235915951E+02 0.92509098328E+01 0.84833803527E+01 0.79376717958E+01 0.76102743091E+01
 0.76102743091E+01 0.77172432907E+01 0.80382090735E+01 0.85733486560E+01 0.93257869742E+01
 0.10292063684E+02 0.11403817056E+02 0.12440031918E+02 0.13025834411E+02 0.12735556230E+02
 0.11349118156E+02 0.90264422240E+01 0.62137021973E+01 0.35088179663E+01 0.15459455375E+01
 0.82755351478E+00 0.15459455375E+01 0.35088179663E+01 0.62137021973E+01 0.90264422240E+01
 0.11349118156E+02 0.12735556230E+02 0.13025834411E+02 0.12440031918E+02 0.11403817056E+02
 0.10292063684E+02 0.93257869742E+01 0.85733486560E+01 0.80382090735E+01 0.77172432907E+01
 0.79376717958E+01 0.80382090735E+01 0.83404128764E+01 0.88447174574E+01 0.95529402680E+01
 0.10463238297E+02 0.11523089377E+02 0.12548176611E+02 0.13208591990E+02 0.13120265409E+02
 0.12045269105E+02 0.10090568658E+02 0.76476948382E+01 0.52599836961E+01 0.35088179663E+01
 0.28639268885E+01 0.35088179663E+01 0.52599836961E+01 0.76476948382E+01 0.10090568658E+02
 0.12045269105E+02 0.13120265409E+02 0.13208591990E+02 0.12548176611E+02 0.11523089377E+02
 0.10463238297E+02 0.95529402680E+01 0.88447174574E+01 0.83404128764E+01 0.80382090735E+01
 0.84833803527E+01 0.85733486560E+01 0.88447174574E+01 0.92985331676E+01 0.99345572507E+01
 0.10751532629E+02 0.11716102533E+02 0.12694162254E+02 0.13420954220E+02 0.13578259512E+02
 0.12922961489E+02 0.11486243643E+02 0.95733630879E+01 0.76476948382E+01 0.62137021973E+01
 0.56818187574E+01 0.62137021973E+01 0.76476948382E+01 0.95733630879E+01 0.11486243643E+02
 0.12922961489E+02 0.13578259512E+02 0.13420954220E+02 0.12694162254E+02 0.11716102533E+02
 0.10751532629E+02 0.99345572507E+01 0.92985331676E+01 0.88447174574E+01 0.85733486560E+01
 0.92509098328E+01 0.93257869742E+01 0.95529402680E+01 0.99345572507E+01 0.10468583112E+02
 0.11153056412E+02 0.11971493703E+02 0.12841548828E+02 0.13574983698E+02 0.13925310563E+02
 0.13682230398E+02 0.12803492507E+02 0.11486243643E+02 0.10090568658E+02 0.90264422240E+01
 0.86280433736E+01 0.90264422240E+01 0.10090568658E+02 0.11486243643E+02 0.12803492507E+02
 0.13682230398E+02 0.13925310563E+02 0.13574983698E+02 0.12841548828E+02 0.11971493703E+02
 0.11153056412E+02 0.10468583112E+02 0.99345572507E+01 0.95529402680E+01 0.93257869742E+01
 0.10235915951E+02 0.10292063684E+02 0.10463238297E+02 0.10751532629E+02 0.11153056412E+02
 0.11664778368E+02 0.12282883210E+02 0.12969480932E+02 0.13612165058E+02 0.14035977013E+02
 0.14083287782E+02 0.13682230398E+02 0.12922961489E+02 0.12045269105E+02 0.11349118156E+02
 0.11084398805E+02 0.11349118156E+02 0.12045269105E+02 0.12922961489E+02 0.13682230398E+02
 0.14083287782E+02 0.14035977013E+02 0.13612165058E+02 0.12969480932E+02 0.12282883210E+02
 0.11664778368E+02 0.11153056412E+02 0.10751532629E+02 0.10463238297E+02 0.10292063684E+02
 0.11363837645E+02 0.11403817056E+02 0.11523089377E+02 0.11716102533E+02 0.11971493703E+02
 0.12282883210E+02 0.12655559694E+02 0.13086836552E+02 0.13530147228E+02 0.13884470706E+02
 0.14035977013E+02 0.13925310563E+02 0.13578259512E+02 0.13120265409E+02 0.12735556230E+02
 0.12585872347E+02 0.12735556230E+02 0.13120265409E+02 0.13578259512E+02 0.13925310563E+02
 0.14035977013E+02 0.13884470706E+02 0.13530147228E+02 0.13086836552E+02 0.12655559694E+02
 0.12282883210E+02 0.11971493703E+02 0.11716102533E+02 0.11523089377E+02 0.11403817056E+02
 0.12400202085E+02 0.12440031918E+02 0.12548176611E+02 0.12694162254E+02 0.12841548828E+02
 0.12969480932E+02 0.13086836552E+02 0.13220007791E+02 0.13378578886E+02 0.13530147228E+02
 0.13612165058E+02 0.13574983698E+02 0.13420954220E+02 0.13208591990E+02 0.13025834411E+02
 0.12953929301E+02 0.13025834411E+02 0.13208591990E+02 0.13420954220E+02 0.13574983698E+02
 0.13612165058E+02 0.13530147228E+02 0.13378578886E+02 0.13220007791E+02 0.13086836552E+02
 0.12969480932E+02 0.12841548828E+02 0.12694162254E+02 0.12548176611E+02 0.12440031918E+02
 0.12953929301E+02 0.13025834411E+02 0.13208591990E+02 0.13420954220E+02 0.13574983698E+02
 0.13612165058E+02 0.13530147228E+02 0.13378578886E+02 0.13220007791E+02 0.13086836552E+02
 0.12969480932E+02 0.12841548828E+02 0.12694162254E+02 0.12548176611E+02 0.12440031918E+02
 0.12400202085E+02 0.12440031918E+02 0.12548176611E+02 0.12694162254E+02 0.12841548828E+02
 0.12969480932E+02 0.13086836552E+02 0.13220007791E+02 0.13378578886E+02 0.13530147228E+02
 0.13612165058E+02 0.13574983698E+02 0.13420954220E+02 0.13208591990E+02 0.13025834411E+02
 0.12585872347E+02 0.12735556230E+02 0.13120265409E+02 0.13578259512E+02 0.13925310563E+02