Na_PW                                   
   1.00000000000000     
     4.049500    0.000000    0.000000
     0.000000    4.049500    0.000000
     0.000000    0.000000    4.049500
   Al
     4
Direct
  0.000000  0.000000  0.000000
  0.000000  0.500000  0.500000
  0.500000  0.000000  0.500000
  0.500000  0.500000  0.000000
 
   30   30   30
 -.12750913927E+03 -.12310446224E+03 -.10955975172E+03 -.88227952160E+02 -.61581573022E+02
 -.36093214871E+02 -.17652606945E+02 -.96490804013E+01 -.67690662745E+01 -.32992416182E+01
 -.11894810213E+01 0.35194019943E+00 0.13017667053E+01 0.18963059414E+01 0.21495931165E+01
 0.22901676878E+01 0.21495931165E+01 0.18963059414E+01 0.13017667053E+01 0.35194019943E+00
 -.11894810213E+01 -.32992416182E+01 -.67690662745E+01 -.96490804013E+01 -.17652606945E+02
 -.36093214871E+02 -.61581573022E+02 -.88227952160E+02 -.10955975172E+03 -.12310446224E+03
 -.12310446224E+03 -.11858797987E+03 -.10504761602E+03 -.83926578584E+02 -.58433369020E+02
 -.33768785652E+02 -.16566858120E+02 -.95130179893E+01 -.65381815732E+01 -.32229302905E+01
 -.11539900552E+01 0.32764719936E+00 0.12398279124E+01 0.17899610567E+01 0.20889322097E+01
 0.21495931165E+01 0.20889322097E+01 0.17899610567E+01 0.12398279124E+01 0.32764719936E+00
 -.11539900552E+01 -.32229302905E+01 -.65381815732E+01 -.95130179893E+01 -.16566858120E+02
 -.33768785652E+02 -.58433369020E+02 -.83926578584E+02 -.10504761602E+03 -.11858797987E+03
 -.10955975172E+03 -.10504761602E+03 -.92382008709E+02 -.72332978766E+02 -.49269135097E+02
 -.27620182011E+02 -.14006364227E+02 -.90702330690E+01 -.59419216903E+01 -.29894465122E+01
 -.10696564967E+01 0.19441927402E+00 0.10607553419E+01 0.15541991567E+01 0.17899610567E+01
 0.18963059414E+01 0.17899610567E+01 0.15541991567E+01 0.10607553419E+01 0.19441927402E+00
 -.10696564967E+01 -.29894465122E+01 -.59419216903E+01 -.90702330690E+01 -.14006364227E+02
 -.27620182011E+02 -.49269135097E+02 -.72332978766E+02 -.92382008709E+02 -.10504761602E+03
 -.88227952160E+02 -.83926578584E+02 -.72332978766E+02 -.55034093215E+02 -.36265571071E+02
 -.19964076075E+02 -.11240505038E+02 -.83076593373E+01 -.50545041348E+01 -.26895463102E+01
 -.10547579921E+01 0.19795650492E-01 0.62827532652E+00 0.10607553419E+01 0.12398279124E+01
 0.13017667053E+01 0.12398279124E+01 0.10607553419E+01 0.62827532652E+00 0.19795650492E-01
 -.10547579921E+01 -.26895463102E+01 -.50545041348E+01 -.83076593373E+01 -.11240505038E+02
 -.19964076075E+02 -.36265571071E+02 -.55034093215E+02 -.72332978766E+02 -.83926578584E+02
 -.61581573022E+02 -.58433369020E+02 -.49269135097E+02 -.36265571071E+02 -.22709656340E+02
 -.13372267721E+02 -.95999931370E+01 -.69247487894E+01 -.41876625440E+01 -.24048089065E+01
 -.11492395269E+01 -.43703750066E+00 0.19795650492E-01 0.19441927402E+00 0.32764719936E+00
 0.35194019943E+00 0.32764719936E+00 0.19441927402E+00 0.19795650492E-01 -.43703750066E+00
 -.11492395269E+01 -.24048089065E+01 -.41876625440E+01 -.69247487894E+01 -.95999931370E+01
 -.13372267721E+02 -.22709656340E+02 -.36265571071E+02 -.49269135097E+02 -.58433369020E+02
 -.36093214871E+02 -.33768785652E+02 -.27620182011E+02 -.19964076075E+02 -.13372267721E+02
 -.10086226033E+02 -.79282810416E+01 -.53319853668E+01 -.35047548950E+01 -.22405407700E+01
 -.15404008492E+01 -.11492395269E+01 -.10547579921E+01 -.10696564967E+01 -.11539900552E+01
 -.11894810213E+01 -.11539900552E+01 -.10696564967E+01 -.10547579921E+01 -.11492395269E+01
 -.15404008492E+01 -.22405407700E+01 -.35047548950E+01 -.53319853668E+01 -.79282810416E+01
 -.10086226033E+02 -.13372267721E+02 -.19964076075E+02 -.27620182011E+02 -.33768785652E+02
 -.17652606945E+02 -.16566858120E+02 -.14006364227E+02 -.11240505038E+02 -.95999931370E+01
 -.79282810416E+01 -.57557755550E+01 -.41350015338E+01 -.30251513395E+01 -.24447248813E+01
 -.22405407700E+01 -.24048089065E+01 -.26895463102E+01 -.29894465122E+01 -.32229302905E+01
 -.32992416182E+01 -.32229302905E+01 -.29894465122E+01 -.26895463102E+01 -.24048089065E+01
 -.22405407700E+01 -.24447248813E+01 -.30251513395E+01 -.41350015338E+01 -.57557755550E+01
 -.79282810416E+01 -.95999931370E+01 -.11240505038E+02 -.14006364227E+02 -.16566858120E+02
 -.96490804013E+01 -.95130179893E+01 -.90702330690E+01 -.83076593373E+01 -.69247487894E+01
 -.53319853668E+01 -.41350015338E+01 -.33121474626E+01 -.29518165648E+01 -.30251513395E+01
 -.35047548950E+01 -.41876625440E+01 -.50545041348E+01 -.59419216903E+01 -.65381815732E+01
 -.67690662745E+01 -.65381815732E+01 -.59419216903E+01 -.50545041348E+01 -.41876625440E+01
 -.35047548950E+01 -.30251513395E+01 -.29518165648E+01 -.33121474626E+01 -.41350015338E+01
 -.53319853668E+01 -.69247487894E+01 -.83076593373E+01 -.90702330690E+01 -.95130179893E+01
 -.67690662745E+01 -.65381815732E+01 -.59419216903E+01 -.50545041348E+01 -.41876625440E+01
 -.35047548950E+01 -.30251513395E+01 -.29518165648E+01 -.33121474626E+01 -.41350015338E+01
 -.53319853668E+01 -.69247487894E+01 -.83076593373E+01 -.90702330690E+01 -.95130179893E+01
 -.96490804013E+01 -.95130179893E+01 -.90702330690E+01 -.83076593373E+01 -.69247487894E+01
 -.53319853668E+01 -.41350015338E+01 -.33121474626E+01 -.29518165648E+01 -.30251513395E+01
 -.35047548950E+01 -.41876625440E+01 -.50545041348E+01 -.59419216903E+01 -.65381815732E+01
 -.32992416182E+01 -.32229302905E+01 -.29894465122E+01 -.26895463102E+01 -.24048089065E+01
 -.22405407700E+01 -.24447248813E+01 -.30251513395E+01 -.41350015338E+01 -.57557755550E+01
 -.79282810416E+01 -.95999931370E+01 -.11240505038E+02 -.14006364227E+02 -.16566858120E+02
 -.17652606945E+02 -.16566858120E+02 -.14006364227E+02 -.11240505038E+02 -.95999931370E+01
 -.79282810416E+01 -.57557755550E+01 -.41350015338E+01 -.30251513395E+01 -.24447248813E+01
 -.22405407700E+01 -.24048089065E+01 -.26895463102E+01 -.29894465122E+01 -.32229302905E+01
 -.11894810213E+01 -.11539900552E+01 -.10696564967E+01 -.10547579921E+01 -.11492395269E+01
 -.15404008492E+01 -.22405407700E+01 -.35047548950E+01 -.53319853668E+01 -.79282810416E+01
 -.10086226033E+02 -.13372267721E+02 -.19964076075E+02 -.27620182011E+02 -.33768785652E+02
 -.36093214871E+02 -.33768785652E+02 -.27620182011E+02 -.19964076075E+02 -.13372267721E+02
 -.10086226033E+02 -.79282810416E+01 -.53319853668E+01 -.35047548950E+01 -.22405407700E+01
 -.15404008492E+01 -.11492395269E+01 -.10547579921E+01 -.10696564967E+01 -.11539900552E+01
 0.35194019943E+00 0.32764719936E+00 0.19441927402E+00 0.19795650492E-01 -.43703750066E+00
 -.11492395269E+01 -.24048089065E+01 -.41876625440E+01 -.69247487894E+01 -.95999931370E+01
 -.13372267721E+02 -.22709656340E+02 -.36265571071E+02 -.49269135097E+02 -.58433369020E+02
 -.61581573022E+02 -.58433369020E+02 -.49269135097E+02 -.36265571071E+02 -.22709656340E+02
 -.13372267721E+02 -.95999931370E+01 -.69247487894E+01 -.41876625440E+01 -.24048089065E+01
 -.11492395269E+01 -.43703750066E+00 0.19795650492E-01 0.19441927402E+00 0.32764719936E+00
 0.13017667053E+01 0.12398279124E+01 0.10607553419E+01 0.62827532652E+00 0.19795650492E-01
 -.10547579921E+01 -.26895463102E+01 -.50545041348E+01 -.83076593373E+01 -.11240505038E+02
 -.19964076075E+02 -.36265571071E+02 -.55034093215E+02 -.72332978766E+02 -.83926578584E+02
 -.88227952160E+02 -.83926578584E+02 -.72332978766E+02 -.55034093215E+02 -.36265571071E+02
 -.19964076075E+02 -.11240505038E+02 -.83076593373E+01 -.50545041348E+01 -.26895463102E+01
 -.10547579921E+01 0.19795650492E-01 0.62827532652E+00 0.10607553419E+01 0.12398279124E+01
 0.18963059414E+01 0.17899610567E+01 0.15541991567E+01 0.10607553419E+01 0.19441927402E+00
 -.10696564967E+01 -.29894465122E+01 -.59419216903E+01 -.90702330690E+01 -.14006364227E+02
 -.27620182011E+02 -.49269135097E+02 -.72332978766E+02 -.92382008709E+02 -.10504761602E+03
 -.10955975172E+03 -.10504761602E+03 -.92382008709E+02 -.72332978766E+02 -.49269135097E+02
 -.27620182011E+02 -.14006364227E+02 -.90702330690E+01 -.59419216903E+01 -.29894465122E+01
 -.10696564967E+01 0.19441927402E+00 0.10607553419E+01 0.15541991567E+01 0.17899610567E+01
 0.21495931165E+01 0.20889322097E+01 0.17899610567E+01 0.12398279124E+01 0.32764719936E+00
 -.11539900552E+01 -.32229302905E+01 -.65381815732E+01 -.95130179893E+01 -.16566858120E+02
 -.33768785652E+02 -.58433369020E+02 -.83926578584E+02 -.10504761602E+03 -.11858797987E+03
 -.12310446224E+03 -.11858797987E+03 -.10504761602E+03 -.83926578584E+02 -.58433369020E+02
 -.33768785652E+02 -.16566858120E+02 -.95130179893E+01 -.65381815732E+01 -.32229302905E+01
 -.11539900552E+01 0.32764719936E+00 0.12398279124E+01 0.17899610567E+01 0.20889322097E+01
 0.22901676878E+01 0.21495931165E+01 0.18963059414E+01 0.13017667053E+01 0.35194019943E+00
 -.11894810213E+01 -.32992416182E+01 -.67690662745E+01 -.96490804013E+01 -.17652606945E+02
 -.36093214871E+02 -.61581573022E+02 -.88227952160E+02 -.10955975172E+03 -.12310446224E+03
 -.12750913927E+03 -.12310446224E+03 -.10955975172E+03 -.88227952160E+02 -.61581573022E+02
 -.36093214871E+02 -.17652606945E+02 -.96490804013E+01 -.67690662745E+01 -.32992416182E+01
 -.11894810213E+01 0.35194019943E+00 0.13017667053E+01 0.18963059414E+01 0.21495931165E+01
 0.21495931165E+01 0.20889322097E+01 0.17899610567E+01 0.12398279124E+01 0.32764719936E+00
 -.11539900552E+01 -.32229302905E+01 -.65381815732E+01 -.95130179893E+01 -.16566858120E+02
 -.33768785652E+02 -.58433369020E+02 -.83926578584E+02 -.10504761602E+03 -.11858797987E+03
 -.12310446224E+03 -.11858797987E+03 -.10504761602E+03 -.83926578584E+02 -.58433369020E+02
 -.33768785652E+02 -.16566858120E+02 -.95130179893E+01 -.65381815732E+01 -.32229302905E+01
 -.11539900552E+01 0.32764719936E+00 0.12398279124E+01 0.17899610567E+01 0.20889322097E+01
 0.18963059414E+01 0.17899610567E+01 0.15541991567E+01 0.10607553419E+01 0.19441927402E+00
 -.10696564967E+01 -.29894465122E+01 -.59419216903E+01 -.90702330690E+01 -.14006364227E+02
 -.27620182011E+02 -.49269135097E+02 -.72332978766E+02 -.92382008709E+02 -.10504761602E+03
 -.10955975172E+03 -.10504761602E+03 -.92382008709E+02 -.72332978766E+02 -.49269135097E+02
 -.27620182011E+02 -.14006364227E+02 -.90702330690E+01 -.59419216903E+01 -.29894465122E+01
 -.10696564967E+01 0.19441927402E+00 0.10607553419E+01 0.15541991567E+01 0.17899610567E+01
 0.13017667053E+01 0.12398279124E+01 0.10607553419E+01 0.62827532652E+00 0.19795650492E-01
 -.10547579921E+01 -.26895463102E+01 -.50545041348E+01 -.83076593373E+01 -.11240505038E+02
 -.19964076075E+02 -.36265571071E+02 -.55034093215E+02 -.72332978766E+02 -.83926578584E+02
 -.88227952160E+02 -.83926578584E+02 -.72332978766E+02 -.55034093215E+02 -.36265571071E+02
 -.19964076075E+02 -.11240505038E+02 -.83076593373E+01 -.50545041348E+01 -.26895463102E+01
 -.10547579921E+01 0.19795650492E-01 0.62827532652E+00 0.10607553419E+01 0.12398279124E+01
 0.35194019943E+00 0.32764719936E+00 0.19441927402E+00 0.19795650492E-01 -.43703750066E+00
 -.11492395269E+01 -.24048089065E+01 -.41876625440E+01 -.69247487894E+01 -.95999931370E+01
 -.13372267721E+02 -.22709656340E+02 -.36265571071E+02 -.49269135097E+02 -.58433369020E+02
 -.61581573022E+02 -.58433369020E+02 -.49269135097E+02 -.36265571071E+02 -.22709656340E+02
 -.13372267721E+02 -.95999931370E+01 -.69247487894E+01 -.41876625440E+01 -.24048089065E+01
 -.11492395269E+01 -.43703750066E+00 0.19795650492E-01 0.19441927402E+00 0.32764719936E+00
 -.11894810213E+01 -.11539900552E+01 -.10696564967E+01 -.10547579921E+01 -.11492395269E+01
 -.15404008492E+01 -.22405407700E+01 -.35047548950E+01 -.53319853668E+01 -.79282810416E+01
 -.10086226033E+02 -.13372267721E+02 -.19964076075E+02 -.27620182011E+02 -.33768785652E+02
 -.36093214871E+02 -.33768785652E+02 -.27620182011E+02 -.19964076075E+02 -.13372267721E+02
 -.10086226033E+02 -.79282810416E+01 -.53319853668E+01 -.35047548950E+01 -.22405407700E+01
 -.15404008492E+01 -.11492395269E+01 -.10547579921E+01 -.10696564967E+01 -.11539900552E+01
 -.32992416182E+01 -.32229302905E+01 -.29894465122E+01 -.26895463102E+01 -.24048089065E+01
 -.22405407700E+01 -.24447248813E+01 -.30251513395E+01 -.41350015338E+01 -.57557755550E+01
 -.79282810416E+01 -.95999931370E+01 -.11240505038E+02 -.14006364227E+02 -.16566858120E+02
 -.17652606945E+02 -.16566858120E+02 -.14006364227E+02 -.11240505038E+02 -.95999931370E+01
 -.79282810416E+01 -.57557755550E+01 -.41350015338E+01 -.30251513395E+01 -.24447248813E+01
 -.22405407700E+01 -.24048089065E+01 -.26895463102E+01 -.29894465122E+01 -.32229302905E+01
 -.67690662745E+01 -.65381815732E+01 -.59419216903E+01 -.50545041348E+01 -.41876625440E+01
 -.35047548950E+01 -.30251513395E+01 -.29518165648E+01 -.33121474626E+01 -.41350015338E+01
 -.53319853668E+01 -.69247487894E+01 -.83076593373E+01 -.90702330690E+01 -.95130179893E+01
 -.96490804013E+01 -.95130179893E+01 -.90702330690E+01 -.83076593373E+01 -.69247487894E+01
 -.53319853668E+01 -.41350015338E+01 -.33121474626E+01 -.29518165648E+01 -.30251513395E+01
 -.35047548950E+01 -.41876625440E+01 -.50545041348E+01 -.59419216903E+01 -.65381815732E+01
 -.96490804013E+01 -.95130179893E+01 -.90702330690E+01 -.83076593373E+01 -.69247487894E+01
 -.53319853668E+01 -.41350015338E+01 -.33121474626E+01 -.29518165648E+01 -.30251513395E+01
 -.35047548950E+01 -.41876625440E+01 -.50545041348E+01 -.59419216903E+01 -.65381815732E+01
 -.67690662745E+01 -.65381815732E+01 -.59419216903E+01 -.50545041348E+01 -.41876625440E+01
 -.35047548950E+01 -.30251513395E+01 -.29518165648E+01 -.33121474626E+01 -.41350015338E+01
 -.53319853668E+01 -.69247487894E+01 -.83076593373E+01 -.90702330690E+01 -.95130179893E+01
 -.17652606945E+02 -.16566858120E+02 -.14006364227E+02 -.11240505038E+02 -.95999931370E+01
 -.79282810416E+01 -.57557755550E+01 -.41350015338E+01 -.30251513395E+01 -.24447248813E+01
 -.22405407700E+01 -.24048089065E+01 -.26895463102E+01 -.29894465122E+01 -.32229302905E+01
 -.32992416182E+01 -.32229302905E+01 -.29894465122E+01 -.26895463102E+01 -.24048089065E+01
 -.22405407700E+01 -.24447248813E+01 -.30251513395E+01 -.41350015338E+01 -.57557755550E+01
 -.79282810416E+01 -.95999931370E+01 -.11240505038E+02 -.14006364227E+02 -.16566858120E+02
 -.36093214871E+02 -.33768785652E+02 -.27620182011E+02 -.19964076075E+02 -.13372267721E+02
 -.10086226033E+02 -.79282810416E+01 -.53319853668E+01 -.35047548950E+01 -.22405407700E+01
 -.15404008492E+01 -.11492395269E+01 -.10547579921E+01 -.10696564967E+01 -.11539900552E+01
 -.11894810213E+01 -.11539900552E+01 -.10696564967E+01 -.10547579921E+01 -.11492395269E+01
 -.15404008492E+01 -.22405407700E+01 -.35047548950E+01 -.53319853668E+01 -.79282810416E+01
 -.10086226033E+02 -.13372267721E+02 -.19964076075E+02 -.27620182011E+02 -.33768785652E+02
 -.61581573022E+02 -.58433369020E+02 -.49269135097E+02 -.36265571071E+02 -.22709656340E+02
 -.13372267721E+02 -.95999931370E+01 -.69247487894E+01 -.41876625440E+01 -.24048089065E+01
 -.11492395269E+01 -.43703750066E+00 0.19795650492E-01 0.19441927402E+00 0.32764719936E+00
 0.35194019943E+00 0.32764719936E+00 0.19441927402E+00 0.19795650492E-01 -.43703750066E+00
 -.11492395269E+01 -.24048089065E+01 -.41876625440E+01 -.69247487894E+01 -.95999931370E+01
 -.13372267721E+02 -.22709656340E+02 -.36265571071E+02 -.49269135097E+02 -.58433369020E+02
 -.88227952160E+02 -.83926578584E+02 -.72332978766E+02 -.55034093215E+02 -.36265571071E+02
 -.19964076075E+02 -.11240505038E+02 -.83076593373E+01 -.50545041348E+01 -.26895463102E+01
 -.10547579921E+01 0.19795650492E-01 0.62827532652E+00 0.10607553419E+01 0.12398279124E+01
 0.13017667053E+01 0.12398279124E+01 0.10607553419E+01 0.62827532652E+00 0.19795650492E-01
 -.10547579921E+01 -.26895463102E+01 -.50545041348E+01 -.83076593373E+01 -.11240505038E+02
 -.19964076075E+02 -.36265571071E+02 -.55034093215E+02 -.72332978766E+02 -.83926578584E+02
 -.10955975172E+03 -.10504761602E+03 -.92382008709E+02 -.72332978766E+02 -.49269135097E+02
 -.27620182011E+02 -.14006364227E+02 -.90702330690E+01 -.59419216903E+01 -.29894465122E+01
 -.10696564967E+01 0.19441927402E+00 0.10607553419E+01 0.15541991567E+01 0.17899610567E+01
 0.18963059414E+01 0.17899610567E+01 0.15541991567E+01 0.10607553419E+01 0.19441927402E+00
 -.10696564967E+01 -.29894465122E+01 -.59419216903E+01 -.90702330690E+01 -.14006364227E+02
 -.27620182011E+02 -.49269135097E+02 -.72332978766E+02 -.92382008709E+02 -.10504761602E+03
 -.12310446224E+03 -.11858797987E+03 -.10504761602E+03 -.83926578584E+02 -.58433369020E+02
 -.33768785652E+02 -.16566858120E+02 -.95130179893E+01 -.65381815732E+01 -.32229302905E+01
 -.11539900552E+01 0.32764719936E+00 0.12398279124E+01 0.17899610567E+01 0.20889322097E+01
 0.21495931165E+01 0.20889322097E+01 0.17899610567E+01 0.12398279124E+01 0.32764719936E+00
 -.11539900552E+01 -.32229302905E+01 -.65381815732E+01 -.95130179893E+01 -.16566858120E+02
 -.33768785652E+02 -.58433369020E+02 -.83926578584E+02 -.10504761602E+03 -.11858797987E+03
 -.12310446224E+03 -.11858797987E+03 -.10504761602E+03 -.83926578584E+02 -.58433369020E+02
 -.33768785652E+02 -.16566858120E+02 -.95130179893E+01 -.65381815732E+01 -.32229302905E+01
 -.11539900552E+01 0.32764719936E+00 0.12398279124E+01 0.17899610567E+01 0.20889322097E+01
 0.21495931165E+01 0.20889322097E+01 0.17899610567E+01 0.12398279124E+01 0.32764719936E+00
 -.11539900552E+01 -.32229302905E+01 -.65381815732E+01 -.95130179893E+01 -.16566858120E+02
 -.33768785652E+02 -.58433369020E+02 -.83926578584E+02 -.10504761602E+03 -.11858797987E+03
 -.11858797987E+03 -.11384855771E+03 -.10052249324E+03 -.79819735993E+02 -.55353610318E+02
 -.31658855972E+02 -.15558197662E+02 -.93943903481E+01 -.63059417522E+01 -.31490094819E+01
 -.11213159523E+01 0.32314027023E+00 0.11603712995E+01 0.17039642628E+01 0.20100630912E+01
 0.20889322097E+01 0.20100630912E+01 0.17039642628E+01 0.11603712995E+01 0.32314027023E+00
 -.11213159523E+01 -.31490094819E+01 -.63059417522E+01 -.93943903481E+01 -.15558197662E+02
 -.31658855972E+02 -.55353610318E+02 -.79819735993E+02 -.10052249324E+03 -.11384855771E+03
 -.10504761602E+03 -.10052249324E+03 -.88156427958E+02 -.68602318697E+02 -.46464609531E+02
 -.25881041890E+02 -.13270800639E+02 -.89434194896E+01 -.57221099490E+01 -.29148970263E+01
 -.10559522967E+01 0.22453902288E+00 0.99114899486E+00 0.14717361709E+01 0.17039642628E+01
 0.17899610567E+01 0.17039642628E+01 0.14717361709E+01 0.99114899486E+00 0.22453902288E+00
 -.10559522967E+01 -.29148970263E+01 -.57221099490E+01 -.89434194896E+01 -.13270800639E+02
 -.25881041890E+02 -.46464609531E+02 -.68602318697E+02 -.88156427958E+02 -.10052249324E+03
 -.83926578584E+02 -.79819735993E+02 -.68602318697E+02 -.52075896949E+02 -.33988221394E+02
 -.18705709210E+02 -.10912037863E+02 -.80927157203E+01 -.48916360311E+01 -.25940395540E+01
 -.10292048082E+01 0.18907937239E-01 0.63655395469E+00 0.99114899486E+00 0.11603712995E+01
 0.12398279124E+01 0.11603712995E+01 0.99114899486E+00 0.63655395469E+00 0.18907937239E-01
 -.10292048082E+01 -.25940395540E+01 -.48916360311E+01 -.80927157203E+01 -.10912037863E+02
 -.18705709210E+02 -.33988221394E+02 -.52075896949E+02 -.68602318697E+02 -.79819735993E+02
 -.58433369020E+02 -.55353610318E+02 -.46464609531E+02 -.33988221394E+02 -.21253314306E+02
 -.12780953266E+02 -.94050999475E+01 -.66955558148E+01 -.40484406743E+01 -.23175758482E+01
 -.10940805549E+01 -.43962756411E+00 0.18907937239E-01 0.22453902288E+00 0.32314027023E+00
 0.32764719936E+00 0.32314027023E+00 0.22453902288E+00 0.18907937239E-01 -.43962756411E+00
 -.10940805549E+01 -.23175758482E+01 -.40484406743E+01 -.66955558148E+01 -.94050999475E+01
 -.12780953266E+02 -.21253314306E+02 -.33988221394E+02 -.46464609531E+02 -.55353610318E+02
 -.33768785652E+02 -.31658855972E+02 -.25881041890E+02 -.18705709210E+02 -.12780953266E+02
 -.98622249650E+01 -.76907780482E+01 -.51489163082E+01 -.33764145709E+01 -.21567803980E+01
 -.14787068352E+01 -.10940805549E+01 -.10292048082E+01 -.10559522967E+01 -.11213159523E+01
 -.11539900552E+01 -.11213159523E+01 -.10559522967E+01 -.10292048082E+01 -.10940805549E+01
 -.14787068352E+01 -.21567803980E+01 -.33764145709E+01 -.51489163082E+01 -.76907780482E+01
 -.98622249650E+01 -.12780953266E+02 -.18705709210E+02 -.25881041890E+02 -.31658855972E+02
 -.16566858120E+02 -.15558197662E+02 -.13270800639E+02 -.10912037863E+02 -.94050999475E+01
 -.76907780482E+01 -.55595837301E+01 -.39828725408E+01 -.29155761163E+01 -.23410169313E+01
 -.21567803980E+01 -.23175758482E+01 -.25940395540E+01 -.29148970263E+01 -.31490094819E+01
 -.32229302905E+01 -.31490094819E+01 -.29148970263E+01 -.25940395540E+01 -.23175758482E+01
 -.21567803980E+01 -.23410169313E+01 -.29155761163E+01 -.39828725408E+01 -.55595837301E+01
 -.76907780482E+01 -.94050999475E+01 -.10912037863E+02 -.13270800639E+02 -.15558197662E+02
 -.95130179893E+01 -.93943903481E+01 -.89434194896E+01 -.80927157203E+01 -.66955558148E+01
 -.51489163082E+01 -.39828725408E+01 -.31922132354E+01 -.28308420975E+01 -.29155761163E+01
 -.33764145709E+01 -.40484406743E+01 -.48916360311E+01 -.57221099490E+01 -.63059417522E+01
 -.65381815732E+01 -.63059417522E+01 -.57221099490E+01 -.48916360311E+01 -.40484406743E+01
 -.33764145709E+01 -.29155761163E+01 -.28308420975E+01 -.31922132354E+01 -.39828725408E+01
 -.51489163082E+01 -.66955558148E+01 -.80927157203E+01 -.89434194896E+01 -.93943903481E+01
 -.65381815732E+01 -.63059417522E+01 -.57221099490E+01 -.48916360311E+01 -.40484406743E+01
 -.33764145709E+01 -.29155761163E+01 -.28308420975E+01 -.31922132354E+01 -.39828725408E+01
 -.51489163082E+01 -.66955558148E+01 -.80927157203E+01 -.89434194896E+01 -.93943903481E+01
 -.95130179893E+01 -.93943903481E+01 -.89434194896E+01 -.80927157203E+01 -.66955558148E+01
 -.51489163082E+01 -.39828725408E+01 -.31922132354E+01 -.28308420975E+01 -.29155761163E+01
 -.33764145709E+01 -.40484406743E+01 -.48916360311E+01 -.57221099490E+01 -.63059417522E+01
 -.32229302905E+01 -.31490094819E+01 -.29148970263E+01 -.25940395540E+01 -.23175758482E+01
 -.21567803980E+01 -.23410169313E+01 -.29155761163E+01 -.39828725408E+01 -.55595837301E+01
 -.76907780482E+01 -.94050999475E+01 -.10912037863E+02 -.13270800639E+02 -.15558197662E+02
 -.16566858120E+02 -.15558197662E+02 -.13270800639E+02 -.10912037863E+02 -.94050999475E+01
 -.76907780482E+01 -.55595837301E+01 -.39828725408E+01 -.29155761163E+01 -.23410169313E+01
 -.21567803980E+01 -.23175758482E+01 -.25940395540E+01 -.29148970263E+01 -.31490094819E+01
 -.11539900552E+01 -.11213159523E+01 -.10559522967E+01 -.10292048082E+01 -.10940805549E+01
 -.14787068352E+01 -.21567803980E+01 -.33764145709E+01 -.51489163082E+01 -.76907780482E+01
 -.98622249650E+01 -.12780953266E+02 -.18705709210E+02 -.25881041890E+02 -.31658855972E+02
 -.33768785652E+02 -.31658855972E+02 -.25881041890E+02 -.18705709210E+02 -.12780953266E+02
 -.98622249650E+01 -.76907780482E+01 -.51489163082E+01 -.33764145709E+01 -.21567803980E+01
 -.14787068352E+01 -.10940805549E+01 -.10292048082E+01 -.10559522967E+01 -.11213159523E+01
 0.32764719936E+00 0.32314027023E+00 0.22453902288E+00 0.18907937240E-01 -.43962756411E+00
 -.10940805549E+01 -.23175758482E+01 -.40484406743E+01 -.66955558148E+01 -.94050999475E+01
 -.12780953266E+02 -.21253314306E+02 -.33988221394E+02 -.46464609531E+02 -.55353610318E+02
 -.58433369020E+02 -.55353610318E+02 -.46464609531E+02 -.33988221394E+02 -.21253314306E+02
 -.12780953266E+02 -.94050999475E+01 -.66955558148E+01 -.40484406743E+01 -.23175758482E+01
 -.10940805549E+01 -.43962756411E+00 0.18907937240E-01 0.22453902288E+00 0.32314027023E+00
 0.12398279124E+01 0.11603712995E+01 0.99114899486E+00 0.63655395469E+00 0.18907937240E-01
 -.10292048082E+01 -.25940395540E+01 -.48916360311E+01 -.80927157203E+01 -.10912037863E+02
 -.18705709210E+02 -.33988221394E+02 -.52075896949E+02 -.68602318697E+02 -.79819735993E+02
 -.83926578584E+02 -.79819735993E+02 -.68602318697E+02 -.52075896949E+02 -.33988221394E+02
 -.18705709210E+02 -.10912037863E+02 -.80927157203E+01 -.48916360311E+01 -.25940395540E+01
 -.10292048082E+01 0.18907937240E-01 0.63655395469E+00 0.99114899486E+00 0.11603712995E+01
 0.17899610567E+01 0.17039642628E+01 0.14717361709E+01 0.99114899486E+00 0.22453902288E+00
 -.10559522967E+01 -.29148970263E+01 -.57221099490E+01 -.89434194896E+01 -.13270800639E+02
 -.25881041890E+02 -.46464609531E+02 -.68602318697E+02 -.88156427958E+02 -.10052249324E+03
 -.10504761602E+03 -.10052249324E+03 -.88156427958E+02 -.68602318697E+02 -.46464609531E+02
 -.25881041890E+02 -.13270800639E+02 -.89434194896E+01 -.57221099490E+01 -.29148970263E+01
 -.10559522967E+01 0.22453902288E+00 0.99114899486E+00 0.14717361709E+01 0.17039642628E+01
 0.20889322097E+01 0.20100630912E+01 0.17039642628E+01 0.11603712995E+01 0.32314027023E+00
 -.11213159523E+01 -.31490094819E+01 -.63059417522E+01 -.93943903481E+01 -.15558197662E+02
 -.31658855972E+02 -.55353610318E+02 -.79819735993E+02 -.10052249324E+03 -.11384855771E+03
 -.11858797987E+03 -.11384855771E+03 -.10052249324E+03 -.79819735993E+02 -.55353610318E+02
 -.31658855972E+02 -.15558197662E+02 -.93943903481E+01 -.63059417522E+01 -.31490094819E+01
 -.11213159523E+01 0.32314027023E+00 0.11603712995E+01 0.17039642628E+01 0.20100630912E+01
 0.21495931165E+01 0.20889322097E+01 0.17899610567E+01 0.12398279124E+01 0.32764719936E+00
 -.11539900552E+01 -.32229302905E+01 -.65381815732E+01 -.95130179893E+01 -.16566858120E+02
 -.33768785652E+02 -.58433369020E+02 -.83926578584E+02 -.10504761602E+03 -.11858797987E+03
 -.12310446224E+03 -.11858797987E+03 -.10504761602E+03 -.83926578584E+02 -.58433369020E+02
 -.33768785652E+02 -.16566858120E+02 -.95130179893E+01 -.65381815732E+01 -.32229302905E+01
 -.11539900552E+01 0.32764719936E+00 0.12398279124E+01 0.17899610567E+01 0.20889322097E+01
 0.20889322097E+01 0.20100630912E+01 0.17039642628E+01 0.11603712995E+01 0.32314027023E+00
 -.11213159523E+01 -.31490094819E+01 -.63059417522E+01 -.93943903481E+01 -.15558197662E+02
 -.31658855972E+02 -.55353610318E+02 -.79819735993E+02 -.10052249324E+03 -.11384855771E+03
 -.11858797987E+03 -.11384855771E+03 -.10052249324E+03 -.79819735993E+02 -.55353610318E+02
 -.31658855972E+02 -.15558197662E+02 -.93943903481E+01 -.63059417522E+01 -.31490094819E+01
 -.11213159523E+01 0.32314027023E+00 0.11603712995E+01 0.17039642628E+01 0.20100630912E+01
 0.17899610567E+01 0.17039642628E+01 0.14717361709E+01 0.99114899486E+00 0.22453902288E+00
 -.10559522967E+01 -.29148970263E+01 -.57221099490E+01 -.89434194896E+01 -.13270800639E+02
 -.25881041890E+02 -.46464609531E+02 -.68602318697E+02 -.88156427958E+02 -.10052249324E+03
 -.10504761602E+03 -.10052249324E+03 -.88156427958E+02 -.68602318697E+02 -.46464609531E+02
 -.25881041890E+02 -.13270800639E+02 -.89434194896E+01 -.57221099490E+01 -.29148970263E+01
 -.10559522967E+01 0.22453902288E+00 0.99114899486E+00 0.14717361709E+01 0.17039642628E+01
 0.12398279124E+01 0.11603712995E+01 0.99114899486E+00 0.63655395469E+00 0.18907937240E-01
 -.10292048082E+01 -.25940395540E+01 -.48916360311E+01 -.80927157203E+01 -.10912037863E+02
 -.18705709210E+02 -.33988221394E+02 -.52075896949E+02 -.68602318697E+02 -.79819735993E+02
 -.83926578584E+02 -.79819735993E+02 -.68602318697E+02 -.52075896949E+02 -.33988221394E+02
 -.18705709210E+02 -.10912037863E+02 -.80927157203E+01 -.48916360311E+01 -.25940395540E+01
 -.10292048082E+01 0.18907937240E-01 0.63655395469E+00 0.99114899486E+00 0.11603712995E+01
 0.32764719936E+00 0.32314027023E+00 0.22453902288E+00 0.18907937240E-01 -.43962756411E+00
 -.10940805549E+01 -.23175758482E+01 -.40484406743E+01 -.66955558148E+01 -.94050999475E+01
 -.12780953266E+02 -.21253314306E+02 -.33988221394E+02 -.46464609531E+02 -.55353610318E+02
 -.58433369020E+02 -.55353610318E+02 -.46464609531E+02 -.33988221394E+02 -.21253314306E+02
 -.12780953266E+02 -.94050999475E+01 -.66955558148E+01 -.40484406743E+01 -.23175758482E+01
 -.10940805549E+01 -.43962756411E+00 0.18907937240E-01 0.22453902288E+00 0.32314027023E+00
 -.11539900552E+01 -.11213159523E+01 -.10559522967E+01 -.10292048082E+01 -.10940805549E+01
 -.14787068352E+01 -.21567803980E+01 -.33764145709E+01 -.51489163082E+01 -.76907780482E+01
 -.98622249650E+01 -.12780953266E+02 -.18705709210E+02 -.25881041890E+02 -.31658855972E+02
 -.33768785652E+02 -.31658855972E+02 -.25881041890E+02 -.18705709210E+02 -.12780953266E+02
 -.98622249650E+01 -.76907780482E+01 -.51489163082E+01 -.33764145709E+01 -.21567803980E+01
 -.14787068352E+01 -.10940805549E+01 -.10292048082E+01 -.10559522967E+01 -.11213159523E+01
 -.32229302905E+01 -.31490094819E+01 -.29148970263E+01 -.25940395540E+01 -.23175758482E+01
 -.21567803980E+01 -.23410169313E+01 -.29155761163E+01 -.39828725408E+01 -.55595837301E+01
 -.76907780482E+01 -.94050999475E+01 -.10912037863E+02 -.13270800639E+02 -.15558197662E+02
 -.16566858120E+02 -.15558197662E+02 -.13270800639E+02 -.10912037863E+02 -.94050999475E+01
 -.76907780482E+01 -.55595837301E+01 -.39828725408E+01 -.29155761163E+01 -.23410169313E+01
 -.21567803980E+01 -.23175758482E+01 -.25940395540E+01 -.29148970263E+01 -.31490094819E+01
 -.65381815732E+01 -.63059417522E+01 -.57221099490E+01 -.48916360311E+01 -.40484406743E+01
 -.33764145709E+01 -.29155761163E+01 -.28308420975E+01 -.31922132354E+01 -.39828725408E+01
 -.51489163082E+01 -.66955558148E+01 -.80927157203E+01 -.89434194896E+01 -.93943903481E+01
 -.95130179893E+01 -.93943903481E+01 -.89434194896E+01 -.80927157203E+01 -.66955558148E+01
 -.51489163082E+01 -.39828725408E+01 -.31922132354E+01 -.28308420975E+01 -.29155761163E+01
 -.33764145709E+01 -.40484406743E+01 -.48916360311E+01 -.57221099490E+01 -.63059417522E+01
 -.95130179893E+01 -.93943903481E+01 -.89434194896E+01 -.80927157203E+01 -.66955558148E+01
 -.51489163082E+01 -.39828725408E+01 -.31922132354E+01 -.28308420975E+01 -.29155761163E+01
 -.33764145709E+01 -.40484406743E+01 -.48916360311E+01 -.57221099490E+01 -.63059417522E+01
 -.65381815732E+01 -.63059417522E+01 -.57221099490E+01 -.48916360311E+01 -.40484406743E+01
 -.33764145709E+01 -.29155761163E+01 -.28308420975E+01 -.31922132354E+01 -.39828725408E+01
 -.51489163082E+01 -.66955558148E+01 -.80927157203E+01 -.89434194896E+01 -.93943903481E+01
 -.16566858120E+02 -.15558197662E+02 -.13270800639E+02 -.10912037863E+02 -.94050999475E+01